<?xml version="1.0" encoding="UTF-8"?>

<!-- generated on Fri 22 Nov 2013 02:05:37 AM PST by SUMO gui Version dev-SVN-r15194
<?xml version="1.0" encoding="UTF-8"?>

<configuration xmlns:xsi="http://www.w3.org/2001/XMLSchema-instance" xsi:noNamespaceSchemaLocation="http://sumo-sim.org/xsd/sumo-gui.exeConfiguration.xsd">

    <input>
        <net-file value="/home/mani/Desktop/C3PO/sumo/KraussFixed/hello.net.xml"/>
        <route-files value="/home/mani/Desktop/C3PO/sumo/KraussFixed/hello.rou.xml"/>
    </input>

    <output>
        <netstate-dump value="/home/mani/Desktop/C3PO/sumo/KraussFixed/dump.txt"/>
        <save-state.prefix value="/home/mani/Desktop/C3PO/sumo/KraussFixed/state"/>
    </output>

    <time>
        <begin value="0"/>
        <end value="-1"/>
        <step-length value="0.1"/>
    </time>

    <report>
        <verbose value="true"/>
    </report>

</configuration>
-->

<netstate xmlns:xsi="http://www.w3.org/2001/XMLSchema-instance" xsi:noNamespaceSchemaLocation="http://sumo-sim.org/xsd/netstate_file.xsd">
    <timestep time="0.00"/>
    <timestep time="0.10"/>
    <timestep time="0.20"/>
    <timestep time="0.30"/>
    <timestep time="0.40"/>
    <timestep time="0.50"/>
    <timestep time="0.60"/>
    <timestep time="0.70"/>
    <timestep time="0.80"/>
    <timestep time="0.90"/>
    <timestep time="1.00">
        <edge id="1to2">
            <lane id="1to2_0">
                <vehicle id="Manual" pos="5.10" speed="0.00"/>
            </lane>
        </edge>
    </timestep>
    <timestep time="1.10">
        <edge id="1to2">
            <lane id="1to2_0">
                <vehicle id="Manual" pos="5.13" speed="0.30"/>
            </lane>
        </edge>
    </timestep>
    <timestep time="1.20">
        <edge id="1to2">
            <lane id="1to2_0">
                <vehicle id="Manual" pos="5.19" speed="0.60"/>
            </lane>
        </edge>
    </timestep>
    <timestep time="1.30">
        <edge id="1to2">
            <lane id="1to2_0">
                <vehicle id="Manual" pos="5.28" speed="0.90"/>
            </lane>
        </edge>
    </timestep>
    <timestep time="1.40">
        <edge id="1to2">
            <lane id="1to2_0">
                <vehicle id="Manual" pos="5.40" speed="1.20"/>
            </lane>
        </edge>
    </timestep>
    <timestep time="1.50">
        <edge id="1to2">
            <lane id="1to2_0">
                <vehicle id="Manual" pos="5.55" speed="1.50"/>
            </lane>
        </edge>
    </timestep>
    <timestep time="1.60">
        <edge id="1to2">
            <lane id="1to2_0">
                <vehicle id="Manual" pos="5.73" speed="1.80"/>
            </lane>
        </edge>
    </timestep>
    <timestep time="1.70">
        <edge id="1to2">
            <lane id="1to2_0">
                <vehicle id="Manual" pos="5.94" speed="2.10"/>
            </lane>
        </edge>
    </timestep>
    <timestep time="1.80">
        <edge id="1to2">
            <lane id="1to2_0">
                <vehicle id="Manual" pos="6.18" speed="2.40"/>
            </lane>
        </edge>
    </timestep>
    <timestep time="1.90">
        <edge id="1to2">
            <lane id="1to2_0">
                <vehicle id="Manual" pos="6.45" speed="2.70"/>
            </lane>
        </edge>
    </timestep>
    <timestep time="2.00">
        <edge id="1to2">
            <lane id="1to2_0">
                <vehicle id="Manual" pos="6.75" speed="3.00"/>
            </lane>
        </edge>
    </timestep>
    <timestep time="2.10">
        <edge id="1to2">
            <lane id="1to2_0">
                <vehicle id="Manual" pos="7.08" speed="3.30"/>
            </lane>
        </edge>
    </timestep>
    <timestep time="2.20">
        <edge id="1to2">
            <lane id="1to2_0">
                <vehicle id="Manual" pos="7.44" speed="3.60"/>
            </lane>
        </edge>
    </timestep>
    <timestep time="2.30">
        <edge id="1to2">
            <lane id="1to2_0">
                <vehicle id="Manual" pos="7.83" speed="3.90"/>
            </lane>
        </edge>
    </timestep>
    <timestep time="2.40">
        <edge id="1to2">
            <lane id="1to2_0">
                <vehicle id="Manual" pos="8.25" speed="4.20"/>
            </lane>
        </edge>
    </timestep>
    <timestep time="2.50">
        <edge id="1to2">
            <lane id="1to2_0">
                <vehicle id="Manual" pos="8.70" speed="4.50"/>
            </lane>
        </edge>
    </timestep>
    <timestep time="2.60">
        <edge id="1to2">
            <lane id="1to2_0">
                <vehicle id="Manual" pos="9.18" speed="4.80"/>
            </lane>
        </edge>
    </timestep>
    <timestep time="2.70">
        <edge id="1to2">
            <lane id="1to2_0">
                <vehicle id="Manual" pos="9.69" speed="5.10"/>
            </lane>
        </edge>
    </timestep>
    <timestep time="2.80">
        <edge id="1to2">
            <lane id="1to2_0">
                <vehicle id="Manual" pos="10.23" speed="5.40"/>
            </lane>
        </edge>
    </timestep>
    <timestep time="2.90">
        <edge id="1to2">
            <lane id="1to2_0">
                <vehicle id="Manual" pos="10.80" speed="5.70"/>
            </lane>
        </edge>
    </timestep>
    <timestep time="3.00">
        <edge id="1to2">
            <lane id="1to2_0">
                <vehicle id="Manual" pos="11.40" speed="6.00"/>
            </lane>
        </edge>
    </timestep>
    <timestep time="3.10">
        <edge id="1to2">
            <lane id="1to2_0">
                <vehicle id="Manual" pos="12.03" speed="6.30"/>
            </lane>
        </edge>
    </timestep>
    <timestep time="3.20">
        <edge id="1to2">
            <lane id="1to2_0">
                <vehicle id="Manual" pos="12.69" speed="6.60"/>
            </lane>
        </edge>
    </timestep>
    <timestep time="3.30">
        <edge id="1to2">
            <lane id="1to2_0">
                <vehicle id="Manual" pos="13.38" speed="6.90"/>
            </lane>
        </edge>
    </timestep>
    <timestep time="3.40">
        <edge id="1to2">
            <lane id="1to2_0">
                <vehicle id="Manual" pos="14.10" speed="7.20"/>
            </lane>
        </edge>
    </timestep>
    <timestep time="3.50">
        <edge id="1to2">
            <lane id="1to2_0">
                <vehicle id="Manual" pos="14.85" speed="7.50"/>
            </lane>
        </edge>
    </timestep>
    <timestep time="3.60">
        <edge id="1to2">
            <lane id="1to2_0">
                <vehicle id="Manual" pos="15.63" speed="7.80"/>
            </lane>
        </edge>
    </timestep>
    <timestep time="3.70">
        <edge id="1to2">
            <lane id="1to2_0">
                <vehicle id="Manual" pos="16.44" speed="8.10"/>
            </lane>
        </edge>
    </timestep>
    <timestep time="3.80">
        <edge id="1to2">
            <lane id="1to2_0">
                <vehicle id="Manual" pos="17.28" speed="8.40"/>
            </lane>
        </edge>
    </timestep>
    <timestep time="3.90">
        <edge id="1to2">
            <lane id="1to2_0">
                <vehicle id="Manual" pos="18.15" speed="8.70"/>
            </lane>
        </edge>
    </timestep>
    <timestep time="4.00">
        <edge id="1to2">
            <lane id="1to2_0">
                <vehicle id="Manual" pos="19.05" speed="9.00"/>
            </lane>
        </edge>
    </timestep>
    <timestep time="4.10">
        <edge id="1to2">
            <lane id="1to2_0">
                <vehicle id="Manual" pos="19.98" speed="9.30"/>
            </lane>
        </edge>
    </timestep>
    <timestep time="4.20">
        <edge id="1to2">
            <lane id="1to2_0">
                <vehicle id="Manual" pos="20.94" speed="9.60"/>
            </lane>
        </edge>
    </timestep>
    <timestep time="4.30">
        <edge id="1to2">
            <lane id="1to2_0">
                <vehicle id="Manual" pos="21.93" speed="9.90"/>
            </lane>
        </edge>
    </timestep>
    <timestep time="4.40">
        <edge id="1to2">
            <lane id="1to2_0">
                <vehicle id="Manual" pos="22.95" speed="10.20"/>
            </lane>
        </edge>
    </timestep>
    <timestep time="4.50">
        <edge id="1to2">
            <lane id="1to2_0">
                <vehicle id="Manual" pos="24.00" speed="10.50"/>
            </lane>
        </edge>
    </timestep>
    <timestep time="4.60">
        <edge id="1to2">
            <lane id="1to2_0">
                <vehicle id="Manual" pos="25.08" speed="10.80"/>
            </lane>
        </edge>
    </timestep>
    <timestep time="4.70">
        <edge id="1to2">
            <lane id="1to2_0">
                <vehicle id="Manual" pos="26.19" speed="11.10"/>
            </lane>
        </edge>
    </timestep>
    <timestep time="4.80">
        <edge id="1to2">
            <lane id="1to2_0">
                <vehicle id="Manual" pos="27.33" speed="11.40"/>
            </lane>
        </edge>
    </timestep>
    <timestep time="4.90">
        <edge id="1to2">
            <lane id="1to2_0">
                <vehicle id="Manual" pos="28.50" speed="11.70"/>
            </lane>
        </edge>
    </timestep>
    <timestep time="5.00">
        <edge id="1to2">
            <lane id="1to2_0">
                <vehicle id="ACC" pos="5.10" speed="0.00"/>
                <vehicle id="Manual" pos="29.70" speed="12.00"/>
            </lane>
        </edge>
    </timestep>
    <timestep time="5.10">
        <edge id="1to2">
            <lane id="1to2_0">
                <vehicle id="ACC" pos="5.13" speed="0.30"/>
                <vehicle id="Manual" pos="30.93" speed="12.30"/>
            </lane>
        </edge>
    </timestep>
    <timestep time="5.20">
        <edge id="1to2">
            <lane id="1to2_0">
                <vehicle id="ACC" pos="5.19" speed="0.60"/>
                <vehicle id="Manual" pos="32.19" speed="12.60"/>
            </lane>
        </edge>
    </timestep>
    <timestep time="5.30">
        <edge id="1to2">
            <lane id="1to2_0">
                <vehicle id="ACC" pos="5.28" speed="0.90"/>
                <vehicle id="Manual" pos="33.48" speed="12.90"/>
            </lane>
        </edge>
    </timestep>
    <timestep time="5.40">
        <edge id="1to2">
            <lane id="1to2_0">
                <vehicle id="ACC" pos="5.40" speed="1.20"/>
                <vehicle id="Manual" pos="34.80" speed="13.20"/>
            </lane>
        </edge>
    </timestep>
    <timestep time="5.50">
        <edge id="1to2">
            <lane id="1to2_0">
                <vehicle id="ACC" pos="5.55" speed="1.50"/>
                <vehicle id="Manual" pos="36.15" speed="13.50"/>
            </lane>
        </edge>
    </timestep>
    <timestep time="5.60">
        <edge id="1to2">
            <lane id="1to2_0">
                <vehicle id="ACC" pos="5.73" speed="1.80"/>
                <vehicle id="Manual" pos="37.53" speed="13.80"/>
            </lane>
        </edge>
    </timestep>
    <timestep time="5.70">
        <edge id="1to2">
            <lane id="1to2_0">
                <vehicle id="ACC" pos="5.94" speed="2.10"/>
                <vehicle id="Manual" pos="38.94" speed="14.10"/>
            </lane>
        </edge>
    </timestep>
    <timestep time="5.80">
        <edge id="1to2">
            <lane id="1to2_0">
                <vehicle id="ACC" pos="6.18" speed="2.40"/>
                <vehicle id="Manual" pos="40.38" speed="14.40"/>
            </lane>
        </edge>
    </timestep>
    <timestep time="5.90">
        <edge id="1to2">
            <lane id="1to2_0">
                <vehicle id="ACC" pos="6.45" speed="2.70"/>
                <vehicle id="Manual" pos="41.85" speed="14.70"/>
            </lane>
        </edge>
    </timestep>
    <timestep time="6.00">
        <edge id="1to2">
            <lane id="1to2_0">
                <vehicle id="ACC" pos="6.75" speed="3.00"/>
                <vehicle id="Manual" pos="43.35" speed="15.00"/>
            </lane>
        </edge>
    </timestep>
    <timestep time="6.10">
        <edge id="1to2">
            <lane id="1to2_0">
                <vehicle id="ACC" pos="7.08" speed="3.30"/>
                <vehicle id="Manual" pos="44.88" speed="15.30"/>
            </lane>
        </edge>
    </timestep>
    <timestep time="6.20">
        <edge id="1to2">
            <lane id="1to2_0">
                <vehicle id="ACC" pos="7.44" speed="3.60"/>
                <vehicle id="Manual" pos="46.44" speed="15.60"/>
            </lane>
        </edge>
    </timestep>
    <timestep time="6.30">
        <edge id="1to2">
            <lane id="1to2_0">
                <vehicle id="ACC" pos="7.83" speed="3.90"/>
                <vehicle id="Manual" pos="48.03" speed="15.90"/>
            </lane>
        </edge>
    </timestep>
    <timestep time="6.40">
        <edge id="1to2">
            <lane id="1to2_0">
                <vehicle id="ACC" pos="8.25" speed="4.20"/>
                <vehicle id="Manual" pos="49.65" speed="16.20"/>
            </lane>
        </edge>
    </timestep>
    <timestep time="6.50">
        <edge id="1to2">
            <lane id="1to2_0">
                <vehicle id="ACC" pos="8.70" speed="4.50"/>
                <vehicle id="Manual" pos="51.30" speed="16.50"/>
            </lane>
        </edge>
    </timestep>
    <timestep time="6.60">
        <edge id="1to2">
            <lane id="1to2_0">
                <vehicle id="ACC" pos="9.18" speed="4.80"/>
                <vehicle id="Manual" pos="52.98" speed="16.80"/>
            </lane>
        </edge>
    </timestep>
    <timestep time="6.70">
        <edge id="1to2">
            <lane id="1to2_0">
                <vehicle id="ACC" pos="9.69" speed="5.10"/>
                <vehicle id="Manual" pos="54.69" speed="17.10"/>
            </lane>
        </edge>
    </timestep>
    <timestep time="6.80">
        <edge id="1to2">
            <lane id="1to2_0">
                <vehicle id="ACC" pos="10.23" speed="5.40"/>
                <vehicle id="Manual" pos="56.43" speed="17.40"/>
            </lane>
        </edge>
    </timestep>
    <timestep time="6.90">
        <edge id="1to2">
            <lane id="1to2_0">
                <vehicle id="ACC" pos="10.80" speed="5.70"/>
                <vehicle id="Manual" pos="58.20" speed="17.70"/>
            </lane>
        </edge>
    </timestep>
    <timestep time="7.00">
        <edge id="1to2">
            <lane id="1to2_0">
                <vehicle id="ACC" pos="11.40" speed="6.00"/>
                <vehicle id="Manual" pos="60.00" speed="18.00"/>
            </lane>
        </edge>
    </timestep>
    <timestep time="7.10">
        <edge id="1to2">
            <lane id="1to2_0">
                <vehicle id="ACC" pos="12.03" speed="6.30"/>
                <vehicle id="Manual" pos="61.83" speed="18.30"/>
            </lane>
        </edge>
    </timestep>
    <timestep time="7.20">
        <edge id="1to2">
            <lane id="1to2_0">
                <vehicle id="ACC" pos="12.69" speed="6.60"/>
                <vehicle id="Manual" pos="63.69" speed="18.60"/>
            </lane>
        </edge>
    </timestep>
    <timestep time="7.30">
        <edge id="1to2">
            <lane id="1to2_0">
                <vehicle id="ACC" pos="13.38" speed="6.90"/>
                <vehicle id="Manual" pos="65.58" speed="18.90"/>
            </lane>
        </edge>
    </timestep>
    <timestep time="7.40">
        <edge id="1to2">
            <lane id="1to2_0">
                <vehicle id="ACC" pos="14.10" speed="7.20"/>
                <vehicle id="Manual" pos="67.50" speed="19.20"/>
            </lane>
        </edge>
    </timestep>
    <timestep time="7.50">
        <edge id="1to2">
            <lane id="1to2_0">
                <vehicle id="ACC" pos="14.85" speed="7.50"/>
                <vehicle id="Manual" pos="69.45" speed="19.50"/>
            </lane>
        </edge>
    </timestep>
    <timestep time="7.60">
        <edge id="1to2">
            <lane id="1to2_0">
                <vehicle id="ACC" pos="15.63" speed="7.80"/>
                <vehicle id="Manual" pos="71.43" speed="19.80"/>
            </lane>
        </edge>
    </timestep>
    <timestep time="7.70">
        <edge id="1to2">
            <lane id="1to2_0">
                <vehicle id="ACC" pos="16.44" speed="8.10"/>
                <vehicle id="Manual" pos="73.44" speed="20.10"/>
            </lane>
        </edge>
    </timestep>
    <timestep time="7.80">
        <edge id="1to2">
            <lane id="1to2_0">
                <vehicle id="ACC" pos="17.28" speed="8.40"/>
                <vehicle id="Manual" pos="75.48" speed="20.40"/>
            </lane>
        </edge>
    </timestep>
    <timestep time="7.90">
        <edge id="1to2">
            <lane id="1to2_0">
                <vehicle id="ACC" pos="18.15" speed="8.70"/>
                <vehicle id="Manual" pos="77.55" speed="20.70"/>
            </lane>
        </edge>
    </timestep>
    <timestep time="8.00">
        <edge id="1to2">
            <lane id="1to2_0">
                <vehicle id="ACC" pos="19.05" speed="9.00"/>
                <vehicle id="Manual" pos="79.65" speed="21.00"/>
            </lane>
        </edge>
    </timestep>
    <timestep time="8.10">
        <edge id="1to2">
            <lane id="1to2_0">
                <vehicle id="ACC" pos="19.98" speed="9.30"/>
                <vehicle id="Manual" pos="81.78" speed="21.30"/>
            </lane>
        </edge>
    </timestep>
    <timestep time="8.20">
        <edge id="1to2">
            <lane id="1to2_0">
                <vehicle id="ACC" pos="20.94" speed="9.60"/>
                <vehicle id="Manual" pos="83.94" speed="21.60"/>
            </lane>
        </edge>
    </timestep>
    <timestep time="8.30">
        <edge id="1to2">
            <lane id="1to2_0">
                <vehicle id="ACC" pos="21.93" speed="9.90"/>
                <vehicle id="Manual" pos="86.13" speed="21.90"/>
            </lane>
        </edge>
    </timestep>
    <timestep time="8.40">
        <edge id="1to2">
            <lane id="1to2_0">
                <vehicle id="ACC" pos="22.95" speed="10.20"/>
                <vehicle id="Manual" pos="88.35" speed="22.20"/>
            </lane>
        </edge>
    </timestep>
    <timestep time="8.50">
        <edge id="1to2">
            <lane id="1to2_0">
                <vehicle id="ACC" pos="24.00" speed="10.50"/>
                <vehicle id="Manual" pos="90.60" speed="22.50"/>
            </lane>
        </edge>
    </timestep>
    <timestep time="8.60">
        <edge id="1to2">
            <lane id="1to2_0">
                <vehicle id="ACC" pos="25.08" speed="10.80"/>
                <vehicle id="Manual" pos="92.88" speed="22.80"/>
            </lane>
        </edge>
    </timestep>
    <timestep time="8.70">
        <edge id="1to2">
            <lane id="1to2_0">
                <vehicle id="ACC" pos="26.19" speed="11.10"/>
                <vehicle id="Manual" pos="95.19" speed="23.10"/>
            </lane>
        </edge>
    </timestep>
    <timestep time="8.80">
        <edge id="1to2">
            <lane id="1to2_0">
                <vehicle id="ACC" pos="27.33" speed="11.40"/>
                <vehicle id="Manual" pos="97.53" speed="23.40"/>
            </lane>
        </edge>
    </timestep>
    <timestep time="8.90">
        <edge id="1to2">
            <lane id="1to2_0">
                <vehicle id="ACC" pos="28.50" speed="11.70"/>
                <vehicle id="Manual" pos="99.90" speed="23.70"/>
            </lane>
        </edge>
    </timestep>
    <timestep time="9.00">
        <edge id="1to2">
            <lane id="1to2_0">
                <vehicle id="ACC" pos="29.70" speed="12.00"/>
                <vehicle id="Manual" pos="102.30" speed="24.00"/>
            </lane>
        </edge>
    </timestep>
    <timestep time="9.10">
        <edge id="1to2">
            <lane id="1to2_0">
                <vehicle id="ACC" pos="30.93" speed="12.30"/>
                <vehicle id="Manual" pos="104.73" speed="24.30"/>
            </lane>
        </edge>
    </timestep>
    <timestep time="9.20">
        <edge id="1to2">
            <lane id="1to2_0">
                <vehicle id="ACC" pos="32.19" speed="12.60"/>
                <vehicle id="Manual" pos="107.19" speed="24.60"/>
            </lane>
        </edge>
    </timestep>
    <timestep time="9.30">
        <edge id="1to2">
            <lane id="1to2_0">
                <vehicle id="ACC" pos="33.48" speed="12.90"/>
                <vehicle id="Manual" pos="109.68" speed="24.90"/>
            </lane>
        </edge>
    </timestep>
    <timestep time="9.40">
        <edge id="1to2">
            <lane id="1to2_0">
                <vehicle id="ACC" pos="34.80" speed="13.20"/>
                <vehicle id="Manual" pos="112.20" speed="25.20"/>
            </lane>
        </edge>
    </timestep>
    <timestep time="9.50">
        <edge id="1to2">
            <lane id="1to2_0">
                <vehicle id="ACC" pos="36.15" speed="13.50"/>
                <vehicle id="Manual" pos="114.75" speed="25.50"/>
            </lane>
        </edge>
    </timestep>
    <timestep time="9.60">
        <edge id="1to2">
            <lane id="1to2_0">
                <vehicle id="ACC" pos="37.53" speed="13.80"/>
                <vehicle id="Manual" pos="117.33" speed="25.80"/>
            </lane>
        </edge>
    </timestep>
    <timestep time="9.70">
        <edge id="1to2">
            <lane id="1to2_0">
                <vehicle id="ACC" pos="38.94" speed="14.10"/>
                <vehicle id="Manual" pos="119.94" speed="26.10"/>
            </lane>
        </edge>
    </timestep>
    <timestep time="9.80">
        <edge id="1to2">
            <lane id="1to2_0">
                <vehicle id="ACC" pos="40.38" speed="14.40"/>
                <vehicle id="Manual" pos="122.58" speed="26.40"/>
            </lane>
        </edge>
    </timestep>
    <timestep time="9.90">
        <edge id="1to2">
            <lane id="1to2_0">
                <vehicle id="ACC" pos="41.85" speed="14.70"/>
                <vehicle id="Manual" pos="125.25" speed="26.70"/>
            </lane>
        </edge>
    </timestep>
    <timestep time="10.00">
        <edge id="1to2">
            <lane id="1to2_0">
                <vehicle id="CACC" pos="5.10" speed="0.00"/>
                <vehicle id="ACC" pos="43.35" speed="15.00"/>
                <vehicle id="Manual" pos="127.95" speed="27.00"/>
            </lane>
        </edge>
    </timestep>
    <timestep time="10.10">
        <edge id="1to2">
            <lane id="1to2_0">
                <vehicle id="CACC" pos="5.13" speed="0.30"/>
                <vehicle id="ACC" pos="44.88" speed="15.30"/>
                <vehicle id="Manual" pos="130.68" speed="27.30"/>
            </lane>
        </edge>
    </timestep>
    <timestep time="10.20">
        <edge id="1to2">
            <lane id="1to2_0">
                <vehicle id="CACC" pos="5.19" speed="0.60"/>
                <vehicle id="ACC" pos="46.44" speed="15.60"/>
                <vehicle id="Manual" pos="133.44" speed="27.60"/>
            </lane>
        </edge>
    </timestep>
    <timestep time="10.30">
        <edge id="1to2">
            <lane id="1to2_0">
                <vehicle id="CACC" pos="5.28" speed="0.90"/>
                <vehicle id="ACC" pos="48.03" speed="15.90"/>
                <vehicle id="Manual" pos="136.23" speed="27.90"/>
            </lane>
        </edge>
    </timestep>
    <timestep time="10.40">
        <edge id="1to2">
            <lane id="1to2_0">
                <vehicle id="CACC" pos="5.40" speed="1.20"/>
                <vehicle id="ACC" pos="49.65" speed="16.20"/>
                <vehicle id="Manual" pos="139.03" speed="28.00"/>
            </lane>
        </edge>
    </timestep>
    <timestep time="10.50">
        <edge id="1to2">
            <lane id="1to2_0">
                <vehicle id="CACC" pos="5.55" speed="1.50"/>
                <vehicle id="ACC" pos="51.30" speed="16.50"/>
                <vehicle id="Manual" pos="141.83" speed="28.00"/>
            </lane>
        </edge>
    </timestep>
    <timestep time="10.60">
        <edge id="1to2">
            <lane id="1to2_0">
                <vehicle id="CACC" pos="5.73" speed="1.80"/>
                <vehicle id="ACC" pos="52.98" speed="16.80"/>
                <vehicle id="Manual" pos="144.63" speed="28.00"/>
            </lane>
        </edge>
    </timestep>
    <timestep time="10.70">
        <edge id="1to2">
            <lane id="1to2_0">
                <vehicle id="CACC" pos="5.94" speed="2.10"/>
                <vehicle id="ACC" pos="54.69" speed="17.10"/>
                <vehicle id="Manual" pos="147.43" speed="28.00"/>
            </lane>
        </edge>
    </timestep>
    <timestep time="10.80">
        <edge id="1to2">
            <lane id="1to2_0">
                <vehicle id="CACC" pos="6.18" speed="2.40"/>
                <vehicle id="ACC" pos="56.43" speed="17.40"/>
                <vehicle id="Manual" pos="150.23" speed="28.00"/>
            </lane>
        </edge>
    </timestep>
    <timestep time="10.90">
        <edge id="1to2">
            <lane id="1to2_0">
                <vehicle id="CACC" pos="6.45" speed="2.70"/>
                <vehicle id="ACC" pos="58.20" speed="17.70"/>
                <vehicle id="Manual" pos="153.03" speed="28.00"/>
            </lane>
        </edge>
    </timestep>
    <timestep time="11.00">
        <edge id="1to2">
            <lane id="1to2_0">
                <vehicle id="CACC" pos="6.75" speed="3.00"/>
                <vehicle id="ACC" pos="60.00" speed="18.00"/>
                <vehicle id="Manual" pos="155.83" speed="28.00"/>
            </lane>
        </edge>
    </timestep>
    <timestep time="11.10">
        <edge id="1to2">
            <lane id="1to2_0">
                <vehicle id="CACC" pos="7.08" speed="3.30"/>
                <vehicle id="ACC" pos="61.83" speed="18.30"/>
                <vehicle id="Manual" pos="158.63" speed="28.00"/>
            </lane>
        </edge>
    </timestep>
    <timestep time="11.20">
        <edge id="1to2">
            <lane id="1to2_0">
                <vehicle id="CACC" pos="7.44" speed="3.60"/>
                <vehicle id="ACC" pos="63.69" speed="18.60"/>
                <vehicle id="Manual" pos="161.43" speed="28.00"/>
            </lane>
        </edge>
    </timestep>
    <timestep time="11.30">
        <edge id="1to2">
            <lane id="1to2_0">
                <vehicle id="CACC" pos="7.83" speed="3.90"/>
                <vehicle id="ACC" pos="65.58" speed="18.90"/>
                <vehicle id="Manual" pos="164.23" speed="28.00"/>
            </lane>
        </edge>
    </timestep>
    <timestep time="11.40">
        <edge id="1to2">
            <lane id="1to2_0">
                <vehicle id="CACC" pos="8.25" speed="4.20"/>
                <vehicle id="ACC" pos="67.50" speed="19.20"/>
                <vehicle id="Manual" pos="167.03" speed="28.00"/>
            </lane>
        </edge>
    </timestep>
    <timestep time="11.50">
        <edge id="1to2">
            <lane id="1to2_0">
                <vehicle id="CACC" pos="8.70" speed="4.50"/>
                <vehicle id="ACC" pos="69.45" speed="19.50"/>
                <vehicle id="Manual" pos="169.83" speed="28.00"/>
            </lane>
        </edge>
    </timestep>
    <timestep time="11.60">
        <edge id="1to2">
            <lane id="1to2_0">
                <vehicle id="CACC" pos="9.18" speed="4.80"/>
                <vehicle id="ACC" pos="71.43" speed="19.80"/>
                <vehicle id="Manual" pos="172.63" speed="28.00"/>
            </lane>
        </edge>
    </timestep>
    <timestep time="11.70">
        <edge id="1to2">
            <lane id="1to2_0">
                <vehicle id="CACC" pos="9.69" speed="5.10"/>
                <vehicle id="ACC" pos="73.44" speed="20.10"/>
                <vehicle id="Manual" pos="175.43" speed="28.00"/>
            </lane>
        </edge>
    </timestep>
    <timestep time="11.80">
        <edge id="1to2">
            <lane id="1to2_0">
                <vehicle id="CACC" pos="10.23" speed="5.40"/>
                <vehicle id="ACC" pos="75.48" speed="20.40"/>
                <vehicle id="Manual" pos="178.23" speed="28.00"/>
            </lane>
        </edge>
    </timestep>
    <timestep time="11.90">
        <edge id="1to2">
            <lane id="1to2_0">
                <vehicle id="CACC" pos="10.80" speed="5.70"/>
                <vehicle id="ACC" pos="77.55" speed="20.70"/>
                <vehicle id="Manual" pos="181.03" speed="28.00"/>
            </lane>
        </edge>
    </timestep>
    <timestep time="12.00">
        <edge id="1to2">
            <lane id="1to2_0">
                <vehicle id="CACC" pos="11.40" speed="6.00"/>
                <vehicle id="ACC" pos="79.65" speed="21.00"/>
                <vehicle id="Manual" pos="183.83" speed="28.00"/>
            </lane>
        </edge>
    </timestep>
    <timestep time="12.10">
        <edge id="1to2">
            <lane id="1to2_0">
                <vehicle id="CACC" pos="12.03" speed="6.30"/>
                <vehicle id="ACC" pos="81.78" speed="21.30"/>
                <vehicle id="Manual" pos="186.63" speed="28.00"/>
            </lane>
        </edge>
    </timestep>
    <timestep time="12.20">
        <edge id="1to2">
            <lane id="1to2_0">
                <vehicle id="CACC" pos="12.69" speed="6.60"/>
                <vehicle id="ACC" pos="83.94" speed="21.60"/>
                <vehicle id="Manual" pos="189.43" speed="28.00"/>
            </lane>
        </edge>
    </timestep>
    <timestep time="12.30">
        <edge id="1to2">
            <lane id="1to2_0">
                <vehicle id="CACC" pos="13.38" speed="6.90"/>