<?xml version="1.0" encoding="iso-8859-1"?>
<configuration xmlns:xsi="http://www.w3.org/2001/XMLSchema-instance" xsi:noNamespaceSchemaLocation="http://sumo.sf.net/xsd/sumoConfiguration.xsd">
 
    <input>
        <net-file value="hello.net.xml"/>
        <route-files value="hello.rou.xml"/>
    </input>

    <output>
        <netstate-dump value="/home/mani/Desktop/VENTOS/sumo/KraussFixed/dump.txt"/>
    </output>

    <time>
        <begin value="0"/>
        <end value="-1"/>
        <step-length value="0.1" />
    </time>

    <report>
        <verbose value="true"/>
    </report>

</configuration>
