<?xml version="1.0" encoding="UTF-8"?>

<!-- generated on Mon 27 Apr 2015 09:45:04 AM PDT by SUMO gui Version dev-SVN-r18302D
<?xml version="1.0" encoding="UTF-8"?>

<configuration xmlns:xsi="http://www.w3.org/2001/XMLSchema-instance" xsi:noNamespaceSchemaLocation="http://sumo.dlr.de/xsd/sumo-gui.exeConfiguration.xsd">

    <input>
        <net-file value="/home/mani/Desktop/SUMO_Debug/hello.net.xml"/>
        <route-files value="/home/mani/Desktop/SUMO_Debug/hello.rou.xml"/>
    </input>

    <output>
        <netstate-dump value="/home/mani/Desktop/VENTOS/sumo/OptimalSpeed/dump.txt"/>
        <save-state.prefix value="/home/mani/Desktop/SUMO_Debug/state"/>
    </output>

    <time>
        <begin value="0"/>
        <end value="-1"/>
        <step-length value="0.1"/>
    </time>

    <report>
        <verbose value="true"/>
    </report>

    <emissions>
        <phemlight-path value="/home/mani/Desktop/SUMO_Debug/./PHEMlight/"/>
    </emissions>

</configuration>
-->

<netstate xmlns:xsi="http://www.w3.org/2001/XMLSchema-instance" xsi:noNamespaceSchemaLocation="http://sumo.dlr.de/xsd/netstate_file.xsd">
    <timestep time="0.00">
        <edge id="1to2">
            <lane id="1to2_0">
                <vehicle id="type1.0" pos="5.10" speed="0.00"/>
            </lane>
        </edge>
    </timestep>
    <timestep time="0.10">
        <edge id="1to2">
            <lane id="1to2_0">
                <vehicle id="type1.0" pos="5.12" speed="0.25"/>
            </lane>
        </edge>
    </timestep>
    <timestep time="0.20">
        <edge id="1to2">
            <lane id="1to2_0">
                <vehicle id="type1.0" pos="5.17" speed="0.49"/>
            </lane>
        </edge>
    </timestep>
    <timestep time="0.30">
        <edge id="1to2">
            <lane id="1to2_0">
                <vehicle id="type1.0" pos="5.25" speed="0.75"/>
            </lane>
        </edge>
    </timestep>
    <timestep time="0.40">
        <edge id="1to2">
            <lane id="1to2_0">
                <vehicle id="type1.0" pos="5.35" speed="0.98"/>
            </lane>
        </edge>
    </timestep>
    <timestep time="0.50">
        <edge id="1to2">
            <lane id="1to2_0">
                <vehicle id="type1.0" pos="5.47" speed="1.21"/>
            </lane>
        </edge>
    </timestep>
    <timestep time="0.60">
        <edge id="1to2">
            <lane id="1to2_0">
                <vehicle id="type1.0" pos="5.61" speed="1.46"/>
            </lane>
        </edge>
    </timestep>
    <timestep time="0.70">
        <edge id="1to2">
            <lane id="1to2_0">
                <vehicle id="type1.0" pos="5.78" speed="1.66"/>
            </lane>
        </edge>
    </timestep>
    <timestep time="0.80">
        <edge id="1to2">
            <lane id="1to2_0">
                <vehicle id="type1.0" pos="5.97" speed="1.90"/>
            </lane>
        </edge>
    </timestep>
    <timestep time="0.90">
        <edge id="1to2">
            <lane id="1to2_0">
                <vehicle id="type1.0" pos="6.18" speed="2.10"/>
            </lane>
        </edge>
    </timestep>
    <timestep time="1.00">
        <edge id="1to2">
            <lane id="1to2_0">
                <vehicle id="type1.0" pos="6.41" speed="2.27"/>
            </lane>
        </edge>
    </timestep>
    <timestep time="1.10">
        <edge id="1to2">
            <lane id="1to2_0">
                <vehicle id="type1.0" pos="6.66" speed="2.53"/>
            </lane>
        </edge>
    </timestep>
    <timestep time="1.20">
        <edge id="1to2">
            <lane id="1to2_0">
                <vehicle id="type1.0" pos="6.93" speed="2.70"/>
            </lane>
        </edge>
    </timestep>
    <timestep time="1.30">
        <edge id="1to2">
            <lane id="1to2_0">
                <vehicle id="type1.0" pos="7.22" speed="2.90"/>
            </lane>
        </edge>
    </timestep>
    <timestep time="1.40">
        <edge id="1to2">
            <lane id="1to2_0">
                <vehicle id="type1.0" pos="7.53" speed="3.10"/>
            </lane>
        </edge>
    </timestep>
    <timestep time="1.50">
        <edge id="1to2">
            <lane id="1to2_0">
                <vehicle id="type1.0" pos="7.86" speed="3.29"/>
            </lane>
        </edge>
    </timestep>
    <timestep time="1.60">
        <edge id="1to2">
            <lane id="1to2_0">
                <vehicle id="type1.0" pos="8.21" speed="3.51"/>
            </lane>
        </edge>
    </timestep>
    <timestep time="1.70">
        <edge id="1to2">
            <lane id="1to2_0">
                <vehicle id="type1.0" pos="8.59" speed="3.77"/>
            </lane>
        </edge>
    </timestep>
    <timestep time="1.80">
        <edge id="1to2">
            <lane id="1to2_0">
                <vehicle id="type1.0" pos="8.98" speed="3.91"/>
            </lane>
        </edge>
    </timestep>
    <timestep time="1.90">
        <edge id="1to2">
            <lane id="1to2_0">
                <vehicle id="type1.0" pos="9.39" speed="4.13"/>
            </lane>
        </edge>
    </timestep>
    <timestep time="2.00">
        <edge id="1to2">
            <lane id="1to2_0">
                <vehicle id="type1.0" pos="9.82" speed="4.30"/>
            </lane>
        </edge>
    </timestep>
    <timestep time="2.10">
        <edge id="1to2">
            <lane id="1to2_0">
                <vehicle id="type1.0" pos="10.28" speed="4.56"/>
            </lane>
        </edge>
    </timestep>
    <timestep time="2.20">
        <edge id="1to2">
            <lane id="1to2_0">
                <vehicle id="type1.0" pos="10.75" speed="4.75"/>
            </lane>
        </edge>
    </timestep>
    <timestep time="2.30">
        <edge id="1to2">
            <lane id="1to2_0">
                <vehicle id="type1.0" pos="11.25" speed="4.97"/>
            </lane>
        </edge>
    </timestep>
    <timestep time="2.40">
        <edge id="1to2">
            <lane id="1to2_0">
                <vehicle id="type1.0" pos="11.76" speed="5.15"/>
            </lane>
        </edge>
    </timestep>
    <timestep time="2.50">
        <edge id="1to2">
            <lane id="1to2_0">
                <vehicle id="type1.0" pos="12.29" speed="5.28"/>
            </lane>
        </edge>
    </timestep>
    <timestep time="2.60">
        <edge id="1to2">
            <lane id="1to2_0">
                <vehicle id="type1.0" pos="12.84" speed="5.44"/>
            </lane>
        </edge>
    </timestep>
    <timestep time="2.70">
        <edge id="1to2">
            <lane id="1to2_0">
                <vehicle id="type1.0" pos="13.39" speed="5.58"/>
            </lane>
        </edge>
    </timestep>
    <timestep time="2.80">
        <edge id="1to2">
            <lane id="1to2_0">
                <vehicle id="type1.0" pos="13.97" speed="5.79"/>
            </lane>
        </edge>
    </timestep>
    <timestep time="2.90">
        <edge id="1to2">
            <lane id="1to2_0">
                <vehicle id="type1.0" pos="14.57" speed="5.98"/>
            </lane>
        </edge>
    </timestep>
    <timestep time="3.00">
        <edge id="1to2">
            <lane id="1to2_0">
                <vehicle id="type1.0" pos="15.19" speed="6.21"/>
            </lane>
        </edge>
    </timestep>
    <timestep time="3.10">
        <edge id="1to2">
            <lane id="1to2_0">
                <vehicle id="type1.0" pos="15.84" speed="6.46"/>
            </lane>
        </edge>
    </timestep>
    <timestep time="3.20">
        <edge id="1to2">
            <lane id="1to2_0">
                <vehicle id="type1.0" pos="16.51" speed="6.69"/>
            </lane>
        </edge>
    </timestep>
    <timestep time="3.30">
        <edge id="1to2">
            <lane id="1to2_0">
                <vehicle id="type1.0" pos="17.19" speed="6.85"/>
            </lane>
        </edge>
    </timestep>
    <timestep time="3.40">
        <edge id="1to2">
            <lane id="1to2_0">
                <vehicle id="type1.0" pos="17.90" speed="7.09"/>
            </lane>
        </edge>
    </timestep>
    <timestep time="3.50">
        <edge id="1to2">
            <lane id="1to2_0">
                <vehicle id="type1.0" pos="18.62" speed="7.22"/>
            </lane>
        </edge>
    </timestep>
    <timestep time="3.60">
        <edge id="1to2">
            <lane id="1to2_0">
                <vehicle id="type1.0" pos="19.37" speed="7.48"/>
            </lane>
        </edge>
    </timestep>
    <timestep time="3.70">
        <edge id="1to2">
            <lane id="1to2_0">
                <vehicle id="type1.0" pos="20.13" speed="7.65"/>
            </lane>
        </edge>
    </timestep>
    <timestep time="3.80">
        <edge id="1to2">
            <lane id="1to2_0">
                <vehicle id="type1.0" pos="20.92" speed="7.86"/>
            </lane>
        </edge>
    </timestep>
    <timestep time="3.90">
        <edge id="1to2">
            <lane id="1to2_0">
                <vehicle id="type1.0" pos="21.73" speed="8.11"/>
            </lane>
        </edge>
    </timestep>
    <timestep time="4.00">
        <edge id="1to2">
            <lane id="1to2_0">
                <vehicle id="type1.0" pos="22.57" speed="8.35"/>
            </lane>
        </edge>
    </timestep>
    <timestep time="4.10">
        <edge id="1to2">
            <lane id="1to2_0">
                <vehicle id="type1.0" pos="23.42" speed="8.56"/>
            </lane>
        </edge>
    </timestep>
    <timestep time="4.20">
        <edge id="1to2">
            <lane id="1to2_0">
                <vehicle id="type1.0" pos="24.29" speed="8.69"/>
            </lane>
        </edge>
    </timestep>
    <timestep time="4.30">
        <edge id="1to2">
            <lane id="1to2_0">
                <vehicle id="type1.0" pos="25.18" speed="8.92"/>
            </lane>
        </edge>
    </timestep>
    <timestep time="4.40">
        <edge id="1to2">
            <lane id="1to2_0">
                <vehicle id="type1.0" pos="26.10" speed="9.15"/>
            </lane>
        </edge>
    </timestep>
    <timestep time="4.50">
        <edge id="1to2">
            <lane id="1to2_0">
                <vehicle id="type1.0" pos="27.04" speed="9.39"/>
            </lane>
        </edge>
    </timestep>
    <timestep time="4.60">
        <edge id="1to2">
            <lane id="1to2_0">
                <vehicle id="type1.0" pos="27.99" speed="9.57"/>
            </lane>
        </edge>
    </timestep>
    <timestep time="4.70">
        <edge id="1to2">
            <lane id="1to2_0">
                <vehicle id="type1.0" pos="28.97" speed="9.80"/>
            </lane>
        </edge>
    </timestep>
    <timestep time="4.80">
        <edge id="1to2">
            <lane id="1to2_0">
                <vehicle id="type1.0" pos="29.97" speed="9.96"/>
            </lane>
        </edge>
    </timestep>
    <timestep time="4.90">
        <edge id="1to2">
            <lane id="1to2_0">
                <vehicle id="type1.0" pos="30.99" speed="10.20"/>
            </lane>
        </edge>
    </timestep>
    <timestep time="5.00">
        <edge id="1to2">
            <lane id="1to2_0">
                <vehicle id="type1.0" pos="32.03" speed="10.38"/>
            </lane>
        </edge>
    </timestep>
    <timestep time="5.10">
        <edge id="1to2">
            <lane id="1to2_0">
                <vehicle id="type1.0" pos="33.08" speed="10.55"/>
            </lane>
        </edge>
    </timestep>
    <timestep time="5.20">
        <edge id="1to2">
            <lane id="1to2_0">
                <vehicle id="type1.0" pos="34.16" speed="10.73"/>
            </lane>
        </edge>
    </timestep>
    <timestep time="5.30">
        <edge id="1to2">
            <lane id="1to2_0">
                <vehicle id="type1.0" pos="35.25" speed="10.90"/>
            </lane>
        </edge>
    </timestep>
    <timestep time="5.40">
        <edge id="1to2">
            <lane id="1to2_0">
                <vehicle id="type1.0" pos="36.35" speed="11.04"/>
            </lane>
        </edge>
    </timestep>
    <timestep time="5.50">
        <edge id="1to2">
            <lane id="1to2_0">
                <vehicle id="type1.0" pos="37.47" speed="11.17"/>
            </lane>
        </edge>
    </timestep>
    <timestep time="5.60">
        <edge id="1to2">
            <lane id="1to2_0">
                <vehicle id="type1.0" pos="38.61" speed="11.39"/>
            </lane>
        </edge>
    </timestep>
    <timestep time="5.70">
        <edge id="1to2">
            <lane id="1to2_0">
                <vehicle id="type1.0" pos="39.76" speed="11.59"/>
            </lane>
        </edge>
    </timestep>
    <timestep time="5.80">
        <edge id="1to2">
            <lane id="1to2_0">
                <vehicle id="type1.0" pos="40.94" speed="11.77"/>
            </lane>
        </edge>
    </timestep>
    <timestep time="5.90">
        <edge id="1to2">
            <lane id="1to2_0">
                <vehicle id="type1.0" pos="42.14" speed="12.01"/>
            </lane>
        </edge>
    </timestep>
    <timestep time="6.00">
        <edge id="1to2">
            <lane id="1to2_0">
                <vehicle id="type1.0" pos="43.36" speed="12.15"/>
            </lane>
        </edge>
    </timestep>
    <timestep time="6.10">
        <edge id="1to2">
            <lane id="1to2_0">
                <vehicle id="type1.0" pos="44.60" speed="12.38"/>
            </lane>
        </edge>
    </timestep>
    <timestep time="6.20">
        <edge id="1to2">
            <lane id="1to2_0">
                <vehicle id="type1.0" pos="45.85" speed="12.56"/>
            </lane>
        </edge>
    </timestep>
    <timestep time="6.30">
        <edge id="1to2">
            <lane id="1to2_0">
                <vehicle id="type1.0" pos="47.13" speed="12.80"/>
            </lane>
        </edge>
    </timestep>
    <timestep time="6.40">
        <edge id="1to2">
            <lane id="1to2_0">
                <vehicle id="type1.0" pos="48.44" speed="13.06"/>
            </lane>
        </edge>
    </timestep>
    <timestep time="6.50">
        <edge id="1to2">
            <lane id="1to2_0">
                <vehicle id="type1.0" pos="49.76" speed="13.28"/>
            </lane>
        </edge>
    </timestep>
    <timestep time="6.60">
        <edge id="1to2">
            <lane id="1to2_0">
                <vehicle id="type1.0" pos="51.11" speed="13.47"/>
            </lane>
        </edge>
    </timestep>
    <timestep time="6.70">
        <edge id="1to2">
            <lane id="1to2_0">
                <vehicle id="type1.0" pos="52.47" speed="13.61"/>
            </lane>
        </edge>
    </timestep>
    <timestep time="6.80">
        <edge id="1to2">
            <lane id="1to2_0">
                <vehicle id="type1.0" pos="53.86" speed="13.86"/>
            </lane>
        </edge>
    </timestep>
    <timestep time="6.90">
        <edge id="1to2">
            <lane id="1to2_0">
                <vehicle id="type1.0" pos="55.27" speed="14.10"/>
            </lane>
        </edge>
    </timestep>
    <timestep time="7.00">
        <edge id="1to2">
            <lane id="1to2_0">
                <vehicle id="type1.0" pos="56.69" speed="14.23"/>
            </lane>
        </edge>
    </timestep>
    <timestep time="7.10">
        <edge id="1to2">
            <lane id="1to2_0">
                <vehicle id="type1.0" pos="58.13" speed="14.45"/>
            </lane>
        </edge>
    </timestep>
    <timestep time="7.20">
        <edge id="1to2">
            <lane id="1to2_0">
                <vehicle id="type1.0" pos="59.60" speed="14.66"/>
            </lane>
        </edge>
    </timestep>
    <timestep time="7.30">
        <edge id="1to2">
            <lane id="1to2_0">
                <vehicle id="type1.0" pos="61.09" speed="14.91"/>
            </lane>
        </edge>
    </timestep>
    <timestep time="7.40">
        <edge id="1to2">
            <lane id="1to2_0">
                <vehicle id="type1.0" pos="62.60" speed="15.10"/>
            </lane>
        </edge>
    </timestep>
    <timestep time="7.50">
        <edge id="1to2">
            <lane id="1to2_0">
                <vehicle id="type1.0" pos="64.13" speed="15.33"/>
            </lane>
        </edge>
    </timestep>
    <timestep time="7.60">
        <edge id="1to2">
            <lane id="1to2_0">
                <vehicle id="type1.0" pos="65.69" speed="15.57"/>
            </lane>
        </edge>
    </timestep>
    <timestep time="7.70">
        <edge id="1to2">
            <lane id="1to2_0">
                <vehicle id="type1.0" pos="67.27" speed="15.82"/>
            </lane>
        </edge>
    </timestep>
    <timestep time="7.80">
        <edge id="1to2">
            <lane id="1to2_0">
                <vehicle id="type1.0" pos="68.88" speed="16.07"/>
            </lane>
        </edge>
    </timestep>
    <timestep time="7.90">
        <edge id="1to2">
            <lane id="1to2_0">
                <vehicle id="type1.0" pos="70.50" speed="16.24"/>
            </lane>
        </edge>
    </timestep>
    <timestep time="8.00">
        <edge id="1to2">
            <lane id="1to2_0">
                <vehicle id="type1.0" pos="72.15" speed="16.45"/>
            </lane>
        </edge>
    </timestep>
    <timestep time="8.10">
        <edge id="1to2">
            <lane id="1to2_0">
                <vehicle id="type1.0" pos="73.82" speed="16.67"/>
            </lane>
        </edge>
    </timestep>
    <timestep time="8.20">
        <edge id="1to2">
            <lane id="1to2_0">
                <vehicle id="type1.0" pos="75.51" speed="16.90"/>
            </lane>
        </edge>
    </timestep>
    <timestep time="8.30">
        <edge id="1to2">
            <lane id="1to2_0">
                <vehicle id="type1.0" pos="77.21" speed="17.08"/>
            </lane>
        </edge>
    </timestep>
    <timestep time="8.40">
        <edge id="1to2">
            <lane id="1to2_0">
                <vehicle id="type1.0" pos="78.94" speed="17.28"/>
            </lane>
        </edge>
    </timestep>
    <timestep time="8.50">
        <edge id="1to2">
            <lane id="1to2_0">
                <vehicle id="type1.0" pos="80.69" speed="17.46"/>
            </lane>
        </edge>
    </timestep>
    <timestep time="8.60">
        <edge id="1to2">
            <lane id="1to2_0">
                <vehicle id="type1.0" pos="82.46" speed="17.67"/>
            </lane>
        </edge>
    </timestep>
    <timestep time="8.70">
        <edge id="1to2">
            <lane id="1to2_0">
                <vehicle id="type1.0" pos="84.24" speed="17.86"/>
            </lane>
        </edge>
    </timestep>
    <timestep time="8.80">
        <edge id="1to2">
            <lane id="1to2_0">
                <vehicle id="type1.0" pos="86.04" speed="18.02"/>
            </lane>
        </edge>
    </timestep>
    <timestep time="8.90">
        <edge id="1to2">
            <lane id="1to2_0">
                <vehicle id="type1.0" pos="87.86" speed="18.20"/>
            </lane>
        </edge>
    </timestep>
    <timestep time="9.00">
        <edge id="1to2">
            <lane id="1to2_0">
                <vehicle id="type1.0" pos="89.70" speed="18.41"/>
            </lane>
        </edge>
    </timestep>
    <timestep time="9.10">
        <edge id="1to2">
            <lane id="1to2_0">
                <vehicle id="type1.0" pos="91.57" speed="18.62"/>
            </lane>
        </edge>
    </timestep>
    <timestep time="9.20">
        <edge id="1to2">
            <lane id="1to2_0">
                <vehicle id="type1.0" pos="93.44" speed="18.75"/>
            </lane>
        </edge>
    </timestep>
    <timestep time="9.30">
        <edge id="1to2">
            <lane id="1to2_0">
                <vehicle id="type1.0" pos="95.34" speed="19.01"/>
            </lane>
        </edge>
    </timestep>
    <timestep time="9.40">
        <edge id="1to2">
            <lane id="1to2_0">
                <vehicle id="type1.0" pos="97.26" speed="19.23"/>
            </lane>
        </edge>
    </timestep>
    <timestep time="9.50">
        <edge id="1to2">
            <lane id="1to2_0">
                <vehicle id="type1.0" pos="99.21" speed="19.48"/>
            </lane>
        </edge>
    </timestep>
    <timestep time="9.60">
        <edge id="1to2">
            <lane id="1to2_0">
                <vehicle id="type1.0" pos="101.17" speed="19.62"/>
            </lane>
        </edge>
    </timestep>
    <timestep time="9.70">
        <edge id="1to2">
            <lane id="1to2_0">
                <vehicle id="type1.0" pos="103.15" speed="19.80"/>
            </lane>
        </edge>
    </timestep>
    <timestep time="9.80">
        <edge id="1to2">
            <lane id="1to2_0">
                <vehicle id="type1.0" pos="105.15" speed="19.94"/>
            </lane>
        </edge>
    </timestep>
    <timestep time="9.90">
        <edge id="1to2">
            <lane id="1to2_0">
                <vehicle id="type1.0" pos="107.16" speed="20.14"/>
            </lane>
        </edge>
    </timestep>
    <timestep time="10.00">
        <edge id="1to2">
            <lane id="1to2_0">
                <vehicle id="type1.0" pos="109.20" speed="20.34"/>
            </lane>
        </edge>
    </timestep>
    <timestep time="10.10">
        <edge id="1to2">
            <lane id="1to2_0">
                <vehicle id="type1.0" pos="111.25" speed="20.51"/>
            </lane>
        </edge>
    </timestep>
    <timestep time="10.20">
        <edge id="1to2">
            <lane id="1to2_0">
                <vehicle id="type1.0" pos="113.32" speed="20.71"/>
            </lane>
        </edge>
    </timestep>
    <timestep time="10.30">
        <edge id="1to2">
            <lane id="1to2_0">
                <vehicle id="type1.0" pos="115.40" speed="20.86"/>
            </lane>
        </edge>
    </timestep>
    <timestep time="10.40">
        <edge id="1to2">
            <lane id="1to2_0">
                <vehicle id="type1.0" pos="117.51" speed="21.04"/>
            </lane>
        </edge>
    </timestep>
    <timestep time="10.50">
        <edge id="1to2">
            <lane id="1to2_0">
                <vehicle id="type1.0" pos="119.63" speed="21.18"/>
            </lane>
        </edge>
    </timestep>
    <timestep time="10.60">
        <edge id="1to2">
            <lane id="1to2_0">
                <vehicle id="type1.0" pos="121.77" speed="21.40"/>
            </lane>
        </edge>
    </timestep>
    <timestep time="10.70">
        <edge id="1to2">
            <lane id="1to2_0">
                <vehicle id="type1.0" pos="123.93" speed="21.60"/>
            </lane>
        </edge>
    </timestep>
    <timestep time="10.80">
        <edge id="1to2">
            <lane id="1to2_0">
                <vehicle id="type1.0" pos="126.11" speed="21.82"/>
            </lane>
        </edge>
    </timestep>
    <timestep time="10.90">
        <edge id="1to2">
            <lane id="1to2_0">
                <vehicle id="type1.0" pos="128.31" speed="21.99"/>
            </lane>
        </edge>
    </timestep>
    <timestep time="11.00">
        <edge id="1to2">
            <lane id="1to2_0">
                <vehicle id="type1.0" pos="130.53" speed="22.23"/>
            </lane>
        </edge>
    </timestep>
    <timestep time="11.10">
        <edge id="1to2">
            <lane id="1to2_0">
                <vehicle id="type1.0" pos="132.77" speed="22.43"/>
            </lane>
        </edge>
    </timestep>
    <timestep time="11.20">
        <edge id="1to2">
            <lane id="1to2_0">
                <vehicle id="type1.0" pos="135.03" speed="22.61"/>
            </lane>
        </edge>
    </timestep>
    <timestep time="11.30">
        <edge id="1to2">
            <lane id="1to2_0">
                <vehicle id="type1.0" pos="137.31" speed="22.77"/>
            </lane>
        </edge>
    </timestep>
    <timestep time="11.40">
        <edge id="1to2">
            <lane id="1to2_0">
                <vehicle id="type1.0" pos="139.61" speed="22.99"/>
            </lane>
        </edge>
    </timestep>
    <timestep time="11.50">
        <edge id="1to2">
            <lane id="1to2_0">
                <vehicle id="type1.0" pos="141.93" speed="23.16"/>
            </lane>
        </edge>
    </timestep>
    <timestep time="11.60">
        <edge id="1to2">
            <lane id="1to2_0">
                <vehicle id="type1.0" pos="144.27" speed="23.40"/>
            </lane>
        </edge>
    </timestep>
    <timestep time="11.70">
        <edge id="1to2">
            <lane id="1to2_0">
                <vehicle id="type1.0" pos="146.62" speed="23.57"/>
            </lane>
        </edge>
    </timestep>
    <timestep time="11.80">
        <edge id="1to2">
            <lane id="1to2_0">
                <vehicle id="type1.0" pos="149.00" speed="23.81"/>
            </lane>
        </edge>
    </timestep>
    <timestep time="11.90">
        <edge id="1to2">
            <lane id="1to2_0">
                <vehicle id="type1.0" pos="151.40" speed="23.96"/>
            </lane>
        </edge>
    </timestep>
    <timestep time="12.00">
        <edge id="1to2">
            <lane id="1to2_0">
                <vehicle id="type1.0" pos="153.82" speed="24.17"/>
            </lane>
        </edge>
    </timestep>
    <timestep time="12.10">
        <edge id="1to2">
            <lane id="1to2_0">
                <vehicle id="type1.0" pos="156.25" speed="24.36"/>
            </lane>
        </edge>
    </timestep>
    <timestep time="12.20">
        <edge id="1to2">
            <lane id="1to2_0">
                <vehicle id="type1.0" pos="158.71" speed="24.62"/>
            </lane>
        </edge>
    </timestep>
    <timestep time="12.30">
        <edge id="1to2">
            <lane id="1to2_0">
                <vehicle id="type1.0" pos="161.20" speed="24.83"/>
            </lane>
        </edge>
    </timestep>
    <timestep time="12.40">
        <edge id="1to2">
            <lane id="1to2_0">
                <vehicle id="type1.0" pos="163.70" speed="25.00"/>
            </lane>
        </edge>
    </timestep>
    <timestep time="12.50">
        <edge id="1to2">
            <lane id="1to2_0">
                <vehicle id="type1.0" pos="166.21" speed="25.13"/>
            </lane>
        </edge>
    </timestep>
    <timestep time="12.60">
        <edge id="1to2">
            <lane id="1to2_0">
                <vehicle id="type1.0" pos="168.74" speed="25.28"/>
            </lane>
        </edge>
    </timestep>
    <timestep time="12.70">
        <edge id="1to2">
            <lane id="1to2_0">
                <vehicle id="type1.0" pos="171.29" speed="25.52"/>
            </lane>
        </edge>
    </timestep>
    <timestep time="12.80">
        <edge id="1to2">
            <lane id="1to2_0">
                <vehicle id="type1.0" pos="173.86" speed="25.67"/>
            </lane>
        </edge>
    </timestep>
    <timestep time="12.90">
        <edge id="1to2">
            <lane id="1to2_0">
                <vehicle id="type1.0" pos="176.45" speed="25.88"/>
            </lane>
        </edge>
    </timestep>
    <timestep time="13.00">
        <edge id="1to2">
            <lane id="1to2_0">
                <vehicle id="type1.0" pos="179.05" speed="26.05"/>
            </lane>
        </edge>
    </timestep>
    <timestep time="13.10">
        <edge id="1to2">
            <lane id="1to2_0">
                <vehicle id="type1.0" pos="181.68" speed="26.26"/>
            </lane>
        </edge>
    </timestep>
    <timestep time="13.20">
        <edge id="1to2">
            <lane id="1to2_0">
                <vehicle id="type1.0" pos="184.32" speed="26.44"/>
            </lane>
        </edge>
    </timestep>
    <timestep time="13.30">
        <edge id="1to2">
            <lane id="1to2_0">
                <vehicle id="type1.0" pos="186.99" speed="26.67"/>
            </lane>
        </edge>
    </timestep>
    <timestep time="13.40">
        <edge id="1to2">
            <lane id="1to2_0">
                <vehicle id="type1.0" pos="189.68" speed="26.88"/>
            </lane>
        </edge>
    </timestep>
    <timestep time="13.50">
        <edge id="1to2">
            <lane id="1to2_0">
                <vehicle id="type1.0" pos="192.38" speed="27.05"/>
            </lane>
        </edge>
    </timestep>
    <timestep time="13.60">
        <edge id="1to2">
            <lane id="1to2_0">
                <vehicle id="type1.0" pos="195.10" speed="27.23"/>
            </lane>
        </edge>
    </timestep>
    <timestep time="13.70">
        <edge id="1to2">
            <lane id="1to2_0">
                <vehicle id="type1.0" pos="197.85" speed="27.42"/>
            </lane>
        </edge>
    </timestep>
    <timestep time="13.80">
        <edge id="1to2">
            <lane id="1to2_0">
                <vehicle id="type1.0" pos="200.61" speed="27.66"/>
            </lane>
        </edge>
    </timestep>
    <timestep time="13.90">
        <edge id="1to2">
            <lane id="1to2_0">
                <vehicle id="type1.0" pos="203.39" speed="27.81"/>
            </lane>
        </edge>
    </timestep>
    <timestep time="14.00">
        <edge id="1to2">
            <lane id="1to2_0">
                <vehicle id="type1.0" pos="206.18" speed="27.92"/>
            </lane>
        </edge>
    </timestep>
    <timestep time="14.10">
        <edge id="1to2">
            <lane id="1to2_0">
                <vehicle id="type1.0" pos="208.97" speed="27.89"/>
            </lane>
        </edge>
    </timestep>
    <timestep time="14.20">
        <edge id="1to2">
            <lane id="1to2_0">
                <vehicle id="type1.0" pos="211.76" speed="27.88"/>
            </lane>
        </edge>
    </timestep>
    <timestep time="14.30">
        <edge id="1to2">
            <lane id="1to2_0">