<?xml version="1.0" encoding="UTF-8"?>

<!-- generated on Fri 24 Oct 2014 08:18:40 PM PDT by SUMO gui Version dev-SVN-r16942D
<?xml version="1.0" encoding="UTF-8"?>

<configuration xmlns:xsi="http://www.w3.org/2001/XMLSchema-instance" xsi:noNamespaceSchemaLocation="http://sumo-sim.org/xsd/sumo-gui.exeConfiguration.xsd">

    <input>
        <net-file value="/home/mani/Desktop/SUMO_Debug/hello.net.xml"/>
        <route-files value="/home/mani/Desktop/SUMO_Debug/hello.rou.xml"/>
    </input>

    <output>
        <netstate-dump value="/home/mani/Desktop/VENTOS/sumo/OptimalSpeed/dump.txt"/>
        <save-state.prefix value="/home/mani/Desktop/SUMO_Debug/state"/>
    </output>

    <time>
        <begin value="0"/>
        <end value="-1"/>
        <step-length value="0.1"/>
    </time>

    <report>
        <verbose value="true"/>
    </report>

    <emissions>
        <phemlight-path value="/home/mani/Desktop/SUMO_Debug/./PHEMlight/"/>
    </emissions>

</configuration>
-->

<netstate xmlns:xsi="http://www.w3.org/2001/XMLSchema-instance" xsi:noNamespaceSchemaLocation="http://sumo-sim.org/xsd/netstate_file.xsd">
    <timestep time="0.00"/>
    <timestep time="0.10"/>
    <timestep time="0.20"/>
    <timestep time="0.30"/>
    <timestep time="0.40"/>
    <timestep time="0.50"/>
    <timestep time="0.60"/>
    <timestep time="0.70"/>
    <timestep time="0.80"/>
    <timestep time="0.90"/>
    <timestep time="1.00"/>
    <timestep time="1.10"/>
    <timestep time="1.20"/>
    <timestep time="1.30"/>
    <timestep time="1.40"/>
    <timestep time="1.50"/>
    <timestep time="1.60"/>
    <timestep time="1.70"/>
    <timestep time="1.80"/>
    <timestep time="1.90"/>
    <timestep time="2.00"/>
    <timestep time="2.10"/>
    <timestep time="2.20"/>
    <timestep time="2.30"/>
    <timestep time="2.40"/>
    <timestep time="2.50"/>
    <timestep time="2.60"/>
    <timestep time="2.70"/>
    <timestep time="2.80"/>
    <timestep time="2.90"/>
    <timestep time="3.00"/>
    <timestep time="3.10"/>
    <timestep time="3.20"/>
    <timestep time="3.30"/>
    <timestep time="3.40"/>
    <timestep time="3.50"/>
    <timestep time="3.60"/>
    <timestep time="3.70"/>
    <timestep time="3.80"/>
    <timestep time="3.90"/>
    <timestep time="4.00"/>
    <timestep time="4.10"/>
    <timestep time="4.20"/>
    <timestep time="4.30"/>
    <timestep time="4.40"/>
    <timestep time="4.50"/>
    <timestep time="4.60"/>
    <timestep time="4.70"/>
    <timestep time="4.80"/>
    <timestep time="4.90"/>
    <timestep time="5.00"/>
    <timestep time="5.10"/>
    <timestep time="5.20"/>
    <timestep time="5.30"/>
    <timestep time="5.40"/>
    <timestep time="5.50"/>
    <timestep time="5.60"/>
    <timestep time="5.70"/>
    <timestep time="5.80"/>
    <timestep time="5.90"/>
    <timestep time="6.00"/>
    <timestep time="6.10"/>
    <timestep time="6.20"/>
    <timestep time="6.30"/>
    <timestep time="6.40"/>
    <timestep time="6.50"/>
    <timestep time="6.60"/>
    <timestep time="6.70"/>
    <timestep time="6.80"/>
    <timestep time="6.90"/>
    <timestep time="7.00"/>
    <timestep time="7.10"/>
    <timestep time="7.20"/>
    <timestep time="7.30"/>
    <timestep time="7.40"/>
    <timestep time="7.50"/>
    <timestep time="7.60"/>
    <timestep time="7.70"/>
    <timestep time="7.80"/>
    <timestep time="7.90"/>
    <timestep time="8.00"/>
    <timestep time="8.10"/>
    <timestep time="8.20"/>
    <timestep time="8.30"/>
    <timestep time="8.40"/>
    <timestep time="8.50"/>
    <timestep time="8.60"/>
    <timestep time="8.70"/>
    <timestep time="8.80"/>
    <timestep time="8.90"/>
    <timestep time="9.00"/>
    <timestep time="9.10"/>
    <timestep time="9.20"/>
    <timestep time="9.30"/>
    <timestep time="9.40"/>
    <timestep time="9.50"/>
    <timestep time="9.60"/>
    <timestep time="9.70"/>
    <timestep time="9.80"/>
    <timestep time="9.90"/>
    <timestep time="10.00">
        <edge id="1to2">
            <lane id="1to2_0">
                <vehicle id="CACC1" pos="5.10" speed="0.00"/>
            </lane>
        </edge>
    </timestep>
    <timestep time="10.10">
        <edge id="1to2">
            <lane id="1to2_0">
                <vehicle id="CACC1" pos="5.10" speed="0.03"/>
            </lane>
        </edge>
    </timestep>
    <timestep time="10.20">
        <edge id="1to2">
            <lane id="1to2_0">
                <vehicle id="CACC1" pos="5.12" speed="0.12"/>
            </lane>
        </edge>
    </timestep>
    <timestep time="10.30">
        <edge id="1to2">
            <lane id="1to2_0">
                <vehicle id="CACC1" pos="5.16" speed="0.41"/>
            </lane>
        </edge>
    </timestep>
    <timestep time="10.40">
        <edge id="1to2">
            <lane id="1to2_0">
                <vehicle id="CACC1" pos="5.21" speed="0.56"/>
            </lane>
        </edge>
    </timestep>
    <timestep time="10.50">
        <edge id="1to2">
            <lane id="1to2_0">
                <vehicle id="CACC1" pos="5.28" speed="0.68"/>
            </lane>
        </edge>
    </timestep>
    <timestep time="10.60">
        <edge id="1to2">
            <lane id="1to2_0">
                <vehicle id="CACC1" pos="5.38" speed="0.97"/>
            </lane>
        </edge>
    </timestep>
    <timestep time="10.70">
        <edge id="1to2">
            <lane id="1to2_0">
                <vehicle id="CACC1" pos="5.48" speed="1.04"/>
            </lane>
        </edge>
    </timestep>
    <timestep time="10.80">
        <edge id="1to2">
            <lane id="1to2_0">
                <vehicle id="CACC1" pos="5.61" speed="1.27"/>
            </lane>
        </edge>
    </timestep>
    <timestep time="10.90">
        <edge id="1to2">
            <lane id="1to2_0">
                <vehicle id="CACC1" pos="5.75" speed="1.41"/>
            </lane>
        </edge>
    </timestep>
    <timestep time="11.00">
        <edge id="1to2">
            <lane id="1to2_0">
                <vehicle id="CACC1" pos="5.90" speed="1.48"/>
            </lane>
        </edge>
    </timestep>
    <timestep time="11.10">
        <edge id="1to2">
            <lane id="1to2_0">
                <vehicle id="CACC1" pos="6.08" speed="1.78"/>
            </lane>
        </edge>
    </timestep>
    <timestep time="11.20">
        <edge id="1to2">
            <lane id="1to2_0">
                <vehicle id="CACC1" pos="6.26" speed="1.88"/>
            </lane>
        </edge>
    </timestep>
    <timestep time="11.30">
        <edge id="1to2">
            <lane id="1to2_0">
                <vehicle id="CACC1" pos="6.47" speed="2.04"/>
            </lane>
        </edge>
    </timestep>
    <timestep time="11.40">
        <edge id="1to2">
            <lane id="1to2_0">
                <vehicle id="CACC1" pos="6.69" speed="2.20"/>
            </lane>
        </edge>
    </timestep>
    <timestep time="11.50">
        <edge id="1to2">
            <lane id="1to2_0">
                <vehicle id="CACC1" pos="6.92" speed="2.33"/>
            </lane>
        </edge>
    </timestep>
    <timestep time="11.60">
        <edge id="1to2">
            <lane id="1to2_0">
                <vehicle id="CACC1" pos="7.18" speed="2.56"/>
            </lane>
        </edge>
    </timestep>
    <timestep time="11.70">
        <edge id="1to2">
            <lane id="1to2_0">
                <vehicle id="CACC1" pos="7.46" speed="2.84"/>
            </lane>
        </edge>
    </timestep>
    <timestep time="11.80">
        <edge id="1to2">
            <lane id="1to2_0">
                <vehicle id="CACC1" pos="7.75" speed="2.87"/>
            </lane>
        </edge>
    </timestep>
    <timestep time="11.90">
        <edge id="1to2">
            <lane id="1to2_0">
                <vehicle id="CACC1" pos="8.06" speed="3.08"/>
            </lane>
        </edge>
    </timestep>
    <timestep time="12.00">
        <edge id="1to2">
            <lane id="1to2_0">
                <vehicle id="CACC1" pos="8.37" speed="3.17"/>
            </lane>
        </edge>
    </timestep>
    <timestep time="12.10">
        <edge id="1to2">
            <lane id="1to2_0">
                <vehicle id="CACC1" pos="8.72" speed="3.46"/>
            </lane>
        </edge>
    </timestep>
    <timestep time="12.20">
        <edge id="1to2">
            <lane id="1to2_0">
                <vehicle id="CACC1" pos="9.08" speed="3.60"/>
            </lane>
        </edge>
    </timestep>
    <timestep time="12.30">
        <edge id="1to2">
            <lane id="1to2_0">
                <vehicle id="CACC1" pos="9.46" speed="3.81"/>
            </lane>
        </edge>
    </timestep>
    <timestep time="12.40">
        <edge id="1to2">
            <lane id="1to2_0">
                <vehicle id="CACC1" pos="9.85" speed="3.92"/>
            </lane>
        </edge>
    </timestep>
    <timestep time="12.50">
        <edge id="1to2">
            <lane id="1to2_0">
                <vehicle id="CACC1" pos="10.25" speed="3.94"/>
            </lane>
        </edge>
    </timestep>
    <timestep time="12.60">
        <edge id="1to2">
            <lane id="1to2_0">
                <vehicle id="CACC1" pos="10.65" speed="3.99"/>
            </lane>
        </edge>
    </timestep>
    <timestep time="12.70">
        <edge id="1to2">
            <lane id="1to2_0">
                <vehicle id="CACC1" pos="11.05" speed="4.03"/>
            </lane>
        </edge>
    </timestep>
    <timestep time="12.80">
        <edge id="1to2">
            <lane id="1to2_0">
                <vehicle id="CACC1" pos="11.47" speed="4.21"/>
            </lane>
        </edge>
    </timestep>
    <timestep time="12.90">
        <edge id="1to2">
            <lane id="1to2_0">
                <vehicle id="CACC1" pos="11.90" speed="4.35"/>
            </lane>
        </edge>
    </timestep>
    <timestep time="13.00">
        <edge id="1to2">
            <lane id="1to2_0">
                <vehicle id="CACC1" pos="12.36" speed="4.57"/>
            </lane>
        </edge>
    </timestep>
    <timestep time="13.10">
        <edge id="1to2">
            <lane id="1to2_0">
                <vehicle id="CACC1" pos="12.85" speed="4.86"/>
            </lane>
        </edge>
    </timestep>
    <timestep time="13.20">
        <edge id="1to2">
            <lane id="1to2_0">
                <vehicle id="CACC1" pos="13.36" speed="5.07"/>
            </lane>
        </edge>
    </timestep>
    <timestep time="13.30">
        <edge id="1to2">
            <lane id="1to2_0">
                <vehicle id="CACC1" pos="13.87" speed="5.14"/>
            </lane>
        </edge>
    </timestep>
    <timestep time="13.40">
        <edge id="1to2">
            <lane id="1to2_0">
                <vehicle id="CACC1" pos="14.41" speed="5.40"/>
            </lane>
        </edge>
    </timestep>
    <timestep time="13.50">
        <edge id="1to2">
            <lane id="1to2_0">
                <vehicle id="CACC1" pos="14.95" speed="5.41"/>
            </lane>
        </edge>
    </timestep>
    <timestep time="13.60">
        <edge id="1to2">
            <lane id="1to2_0">
                <vehicle id="CACC1" pos="15.52" speed="5.70"/>
            </lane>
        </edge>
    </timestep>
    <timestep time="13.70">
        <edge id="1to2">
            <lane id="1to2_0">
                <vehicle id="CACC1" pos="16.10" speed="5.80"/>
            </lane>
        </edge>
    </timestep>
    <timestep time="13.80">
        <edge id="1to2">
            <lane id="1to2_0">
                <vehicle id="CACC1" pos="16.70" speed="6.00"/>
            </lane>
        </edge>
    </timestep>
    <timestep time="13.90">
        <edge id="1to2">
            <lane id="1to2_0">
                <vehicle id="CACC1" pos="17.33" speed="6.26"/>
            </lane>
        </edge>
    </timestep>
    <timestep time="14.00">
        <edge id="1to2">
            <lane id="1to2_0">
                <vehicle id="CACC1" pos="17.98" speed="6.52"/>
            </lane>
        </edge>
    </timestep>
    <timestep time="14.10">
        <edge id="1to2">
            <lane id="1to2_0">
                <vehicle id="CACC1" pos="18.65" speed="6.70"/>
            </lane>
        </edge>
    </timestep>
    <timestep time="14.20">
        <edge id="1to2">
            <lane id="1to2_0">
                <vehicle id="CACC1" pos="19.32" speed="6.71"/>
            </lane>
        </edge>
    </timestep>
    <timestep time="14.30">
        <edge id="1to2">
            <lane id="1to2_0">
                <vehicle id="CACC1" pos="20.01" speed="6.93"/>
            </lane>
        </edge>
    </timestep>
    <timestep time="14.40">
        <edge id="1to2">
            <lane id="1to2_0">
                <vehicle id="CACC1" pos="20.73" speed="7.16"/>
            </lane>
        </edge>
    </timestep>
    <timestep time="14.50">
        <edge id="1to2">
            <lane id="1to2_0">
                <vehicle id="CACC1" pos="21.47" speed="7.41"/>
            </lane>
        </edge>
    </timestep>
    <timestep time="14.60">
        <edge id="1to2">
            <lane id="1to2_0">
                <vehicle id="CACC1" pos="22.22" speed="7.54"/>
            </lane>
        </edge>
    </timestep>
    <timestep time="14.70">
        <edge id="1to2">
            <lane id="1to2_0">
                <vehicle id="CACC1" pos="23.00" speed="7.77"/>
            </lane>
        </edge>
    </timestep>
    <timestep time="14.80">
        <edge id="1to2">
            <lane id="1to2_0">
                <vehicle id="CACC1" pos="23.78" speed="7.82"/>
            </lane>
        </edge>
    </timestep>
    <timestep time="14.90">
        <edge id="1to2">
            <lane id="1to2_0">
                <vehicle id="CACC1" pos="24.59" speed="8.10"/>
            </lane>
        </edge>
    </timestep>
    <timestep time="15.00">
        <edge id="1to2">
            <lane id="1to2_0">
                <vehicle id="CACC1" pos="25.41" speed="8.20"/>
            </lane>
        </edge>
    </timestep>
    <timestep time="15.10">
        <edge id="1to2">
            <lane id="1to2_0">
                <vehicle id="CACC1" pos="26.24" speed="8.28"/>
            </lane>
        </edge>
    </timestep>
    <timestep time="15.20">
        <edge id="1to2">
            <lane id="1to2_0">
                <vehicle id="CACC1" pos="27.08" speed="8.40"/>
            </lane>
        </edge>
    </timestep>
    <timestep time="15.30">
        <edge id="1to2">
            <lane id="1to2_0">
                <vehicle id="CACC1" pos="27.93" speed="8.49"/>
            </lane>
        </edge>
    </timestep>
    <timestep time="15.40">
        <edge id="1to2">
            <lane id="1to2_0">
                <vehicle id="CACC1" pos="28.78" speed="8.51"/>
            </lane>
        </edge>
    </timestep>
    <timestep time="15.50">
        <edge id="1to2">
            <lane id="1to2_0">
                <vehicle id="CACC1" pos="29.63" speed="8.53"/>
            </lane>
        </edge>
    </timestep>
    <timestep time="15.60">
        <edge id="1to2">
            <lane id="1to2_0">
                <vehicle id="CACC1" pos="30.50" speed="8.73"/>
            </lane>
        </edge>
    </timestep>
    <timestep time="15.70">
        <edge id="1to2">
            <lane id="1to2_0">
                <vehicle id="CACC1" pos="31.39" speed="8.89"/>
            </lane>
        </edge>
    </timestep>
    <timestep time="15.80">
        <edge id="1to2">
            <lane id="1to2_0">
                <vehicle id="CACC1" pos="32.29" speed="9.01"/>
            </lane>
        </edge>
    </timestep>
    <timestep time="15.90">
        <edge id="1to2">
            <lane id="1to2_0">
                <vehicle id="CACC1" pos="33.22" speed="9.26"/>
            </lane>
        </edge>
    </timestep>
    <timestep time="16.00">
        <edge id="1to2">
            <lane id="1to2_0">
                <vehicle id="CACC1" pos="34.15" speed="9.28"/>
            </lane>
        </edge>
    </timestep>
    <timestep time="16.10">
        <edge id="1to2">
            <lane id="1to2_0">
                <vehicle id="CACC1" pos="35.10" speed="9.52"/>
            </lane>
        </edge>
    </timestep>
    <timestep time="16.20">
        <edge id="1to2">
            <lane id="1to2_0">
                <vehicle id="CACC1" pos="36.06" speed="9.63"/>
            </lane>
        </edge>
    </timestep>
    <timestep time="16.30">
        <edge id="1to2">
            <lane id="1to2_0">
                <vehicle id="CACC1" pos="37.05" speed="9.88"/>
            </lane>
        </edge>
    </timestep>
    <timestep time="16.40">
        <edge id="1to2">
            <lane id="1to2_0">
                <vehicle id="CACC1" pos="38.07" speed="10.17"/>
            </lane>
        </edge>
    </timestep>
    <timestep time="16.50">
        <edge id="1to2">
            <lane id="1to2_0">
                <vehicle id="CACC1" pos="39.11" speed="10.39"/>
            </lane>
        </edge>
    </timestep>
    <timestep time="16.60">
        <edge id="1to2">
            <lane id="1to2_0">
                <vehicle id="CACC1" pos="40.16" speed="10.53"/>
            </lane>
        </edge>
    </timestep>
    <timestep time="16.70">
        <edge id="1to2">
            <lane id="1to2_0">
                <vehicle id="CACC1" pos="41.21" speed="10.55"/>
            </lane>
        </edge>
    </timestep>
    <timestep time="16.80">
        <edge id="1to2">
            <lane id="1to2_0">
                <vehicle id="CACC1" pos="42.30" speed="10.83"/>
            </lane>
        </edge>
    </timestep>
    <timestep time="16.90">
        <edge id="1to2">
            <lane id="1to2_0">
                <vehicle id="CACC1" pos="43.40" speed="11.07"/>
            </lane>
        </edge>
    </timestep>
    <timestep time="17.00">
        <edge id="1to2">
            <lane id="1to2_0">
                <vehicle id="CACC1" pos="44.51" speed="11.08"/>
            </lane>
        </edge>
    </timestep>
    <timestep time="17.10">
        <edge id="1to2">
            <lane id="1to2_0">
                <vehicle id="CACC1" pos="45.64" speed="11.28"/>
            </lane>
        </edge>
    </timestep>
    <timestep time="17.20">
        <edge id="1to2">
            <lane id="1to2_0">
                <vehicle id="CACC1" pos="46.79" speed="11.48"/>
            </lane>
        </edge>
    </timestep>
    <timestep time="17.30">
        <edge id="1to2">
            <lane id="1to2_0">
                <vehicle id="CACC1" pos="47.96" speed="11.75"/>
            </lane>
        </edge>
    </timestep>
    <timestep time="17.40">
        <edge id="1to2">
            <lane id="1to2_0">
                <vehicle id="CACC1" pos="49.15" speed="11.88"/>
            </lane>
        </edge>
    </timestep>
    <timestep time="17.50">
        <edge id="1to2">
            <lane id="1to2_0">
                <vehicle id="CACC1" pos="50.36" speed="12.12"/>
            </lane>
        </edge>
    </timestep>
    <timestep time="17.60">
        <edge id="1to2">
            <lane id="1to2_0">
                <vehicle id="CACC1" pos="51.60" speed="12.37"/>
            </lane>
        </edge>
    </timestep>
    <timestep time="17.70">
        <edge id="1to2">
            <lane id="1to2_0">
                <vehicle id="CACC1" pos="52.87" speed="12.65"/>
            </lane>
        </edge>
    </timestep>
    <timestep time="17.80">
        <edge id="1to2">
            <lane id="1to2_0">
                <vehicle id="CACC1" pos="54.16" speed="12.93"/>
            </lane>
        </edge>
    </timestep>
    <timestep time="17.90">
        <edge id="1to2">
            <lane id="1to2_0">
                <vehicle id="CACC1" pos="55.46" speed="13.01"/>
            </lane>
        </edge>
    </timestep>
    <timestep time="18.00">
        <edge id="1to2">
            <lane id="1to2_0">
                <vehicle id="CACC1" pos="56.78" speed="13.21"/>
            </lane>
        </edge>
    </timestep>
    <timestep time="18.10">
        <edge id="1to2">
            <lane id="1to2_0">
                <vehicle id="CACC1" pos="58.12" speed="13.42"/>
            </lane>
        </edge>
    </timestep>
    <timestep time="18.20">
        <edge id="1to2">
            <lane id="1to2_0">
                <vehicle id="CACC1" pos="59.49" speed="13.66"/>
            </lane>
        </edge>
    </timestep>
    <timestep time="18.30">
        <edge id="1to2">
            <lane id="1to2_0">
                <vehicle id="CACC1" pos="60.86" speed="13.75"/>
            </lane>
        </edge>
    </timestep>
    <timestep time="18.40">
        <edge id="1to2">
            <lane id="1to2_0">
                <vehicle id="CACC1" pos="62.26" speed="13.93"/>
            </lane>
        </edge>
    </timestep>
    <timestep time="18.50">
        <edge id="1to2">
            <lane id="1to2_0">
                <vehicle id="CACC1" pos="63.66" speed="14.04"/>
            </lane>
        </edge>
    </timestep>
    <timestep time="18.60">
        <edge id="1to2">
            <lane id="1to2_0">
                <vehicle id="CACC1" pos="65.08" speed="14.22"/>
            </lane>
        </edge>
    </timestep>
    <timestep time="18.70">
        <edge id="1to2">
            <lane id="1to2_0">
                <vehicle id="CACC1" pos="66.52" speed="14.37"/>
            </lane>
        </edge>
    </timestep>
    <timestep time="18.80">
        <edge id="1to2">
            <lane id="1to2_0">
                <vehicle id="CACC1" pos="67.96" speed="14.42"/>
            </lane>
        </edge>
    </timestep>
    <timestep time="18.90">
        <edge id="1to2">
            <lane id="1to2_0">
                <vehicle id="CACC1" pos="69.42" speed="14.55"/>
            </lane>
        </edge>
    </timestep>
    <timestep time="19.00">
        <edge id="1to2">
            <lane id="1to2_0">
                <vehicle id="CACC1" pos="70.89" speed="14.72"/>
            </lane>
        </edge>
    </timestep>
    <timestep time="19.10">
        <edge id="1to2">
            <lane id="1to2_0">
                <vehicle id="CACC1" pos="72.38" speed="14.91"/>
            </lane>
        </edge>
    </timestep>
    <timestep time="19.20">
        <edge id="1to2">
            <lane id="1to2_0">
                <vehicle id="CACC1" pos="73.87" speed="14.92"/>
            </lane>
        </edge>
    </timestep>
    <timestep time="19.30">
        <edge id="1to2">
            <lane id="1to2_0">
                <vehicle id="CACC1" pos="75.40" speed="15.21"/>
            </lane>
        </edge>
    </timestep>
    <timestep time="19.40">
        <edge id="1to2">
            <lane id="1to2_0">
                <vehicle id="CACC1" pos="76.94" speed="15.42"/>
            </lane>
        </edge>
    </timestep>
    <timestep time="19.50">
        <edge id="1to2">
            <lane id="1to2_0">
                <vehicle id="CACC1" pos="78.51" speed="15.69"/>
            </lane>
        </edge>
    </timestep>
    <timestep time="19.60">
        <edge id="1to2">
            <lane id="1to2_0">
                <vehicle id="CACC1" pos="80.08" speed="15.73"/>
            </lane>
        </edge>
    </timestep>
    <timestep time="19.70">
        <edge id="1to2">
            <lane id="1to2_0">
                <vehicle id="CACC1" pos="81.66" speed="15.84"/>
            </lane>
        </edge>
    </timestep>
    <timestep time="19.80">
        <edge id="1to2">
            <lane id="1to2_0">
                <vehicle id="CACC1" pos="83.25" speed="15.86"/>
            </lane>
        </edge>
    </timestep>
    <timestep time="19.90">
        <edge id="1to2">
            <lane id="1to2_0">
                <vehicle id="CACC1" pos="84.85" speed="16.02"/>
            </lane>
        </edge>
    </timestep>
    <timestep time="20.00">
        <edge id="1to2">
            <lane id="1to2_0">
                <vehicle id="CACC2" pos="5.10" speed="0.00"/>
                <vehicle id="CACC1" pos="86.47" speed="16.19"/>
            </lane>
        </edge>
    </timestep>
    <timestep time="20.10">
        <edge id="1to2">
            <lane id="1to2_0">
                <vehicle id="CACC2" pos="5.12" speed="0.16"/>
                <vehicle id="CACC1" pos="88.10" speed="16.27"/>
            </lane>
        </edge>
    </timestep>
    <timestep time="20.20">
        <edge id="1to2">
            <lane id="1to2_0">
                <vehicle id="CACC2" pos="5.15" speed="0.29"/>
                <vehicle id="CACC1" pos="89.73" speed="16.31"/>
            </lane>
        </edge>
    </timestep>
    <timestep time="20.30">
        <edge id="1to2">
            <lane id="1to2_0">
                <vehicle id="CACC2" pos="5.20" speed="0.50"/>
                <vehicle id="CACC1" pos="91.36" speed="16.32"/>
            </lane>
        </edge>
    </timestep>
    <timestep time="20.40">
        <edge id="1to2">
            <lane id="1to2_0">
                <vehicle id="CACC2" pos="5.27" speed="0.70"/>
                <vehicle id="CACC1" pos="93.01" speed="16.50"/>
            </lane>
        </edge>
    </timestep>
    <timestep time="20.50">
        <edge id="1to2">
            <lane id="1to2_0">
                <vehicle id="CACC2" pos="5.36" speed="0.97"/>
                <vehicle id="CACC1" pos="94.67" speed="16.59"/>
            </lane>
        </edge>
    </timestep>
    <timestep time="20.60">
        <edge id="1to2">
            <lane id="1to2_0">
                <vehicle id="CACC2" pos="5.47" speed="1.07"/>
                <vehicle id="CACC1" pos="96.34" speed="16.75"/>
            </lane>
        </edge>
    </timestep>
    <timestep time="20.70">
        <edge id="1to2">
            <lane id="1to2_0">
                <vehicle id="CACC2" pos="5.60" speed="1.29"/>
                <vehicle id="CACC1" pos="98.03" speed="16.81"/>
            </lane>
        </edge>
    </timestep>
    <timestep time="20.80">
        <edge id="1to2">
            <lane id="1to2_0">
                <vehicle id="CACC2" pos="5.75" speed="1.55"/>
                <vehicle id="CACC1" pos="99.72" speed="16.90"/>
            </lane>
        </edge>
    </timestep>
    <timestep time="20.90">
        <edge id="1to2">
            <lane id="1to2_0">
                <vehicle id="CACC2" pos="5.93" speed="1.81"/>
                <vehicle id="CACC1" pos="101.41" speed="16.99"/>
            </lane>
        </edge>
    </timestep>
    <timestep time="21.00">
        <edge id="1to2">
            <lane id="1to2_0">
                <vehicle id="CACC2" pos="6.13" speed="1.99"/>
                <vehicle id="CACC1" pos="103.12" speed="17.02"/>
            </lane>
        </edge>
    </timestep>
    <timestep time="21.10">
        <edge id="1to2">
            <lane id="1to2_0">
                <vehicle id="CACC2" pos="6.36" speed="2.28"/>
                <vehicle id="CACC1" pos="104.83" speed="17.18"/>
            </lane>
        </edge>
    </timestep>
    <timestep time="21.20">
        <edge id="1to2">
            <lane id="1to2_0">
                <vehicle id="CACC2" pos="6.60" speed="2.38"/>
                <vehicle id="CACC1" pos="106.57" speed="17.36"/>
            </lane>
        </edge>
    </timestep>
    <timestep time="21.30">
        <edge id="1to2">
            <lane id="1to2_0">
                <vehicle id="CACC2" pos="6.84" speed="2.43"/>
                <vehicle id="CACC1" pos="108.31" speed="17.37"/>
            </lane>
        </edge>
    </timestep>
    <timestep time="21.40">
        <edge id="1to2">
            <lane id="1to2_0">
                <vehicle id="CACC2" pos="7.09" speed="2.45"/>
                <vehicle id="CACC1" pos="110.07" speed="17.62"/>
            </lane>
        </edge>
    </timestep>
    <timestep time="21.50">
        <edge id="1to2">
            <lane id="1to2_0">
                <vehicle id="CACC2" pos="7.34" speed="2.56"/>
                <vehicle id="CACC1" pos="111.85" speed="17.82"/>
            </lane>
        </edge>
    </timestep>
    <timestep time="21.60">
        <edge id="1to2">
            <lane id="1to2_0">
                <vehicle id="CACC2" pos="7.61" speed="2.68"/>
                <vehicle id="CACC1" pos="113.65" speed="17.99"/>
            </lane>
        </edge>
    </timestep>
    <timestep time="21.70">
        <edge id="1to2">
            <lane id="1to2_0">
                <vehicle id="CACC2" pos="7.90" speed="2.87"/>
                <vehicle id="CACC1" pos="115.47" speed="18.20"/>
            </lane>
        </edge>
    </timestep>
    <timestep time="21.80">
        <edge id="1to2">
            <lane id="1to2_0">
                <vehicle id="CACC2" pos="8.20" speed="2.99"/>
                <vehicle id="CACC1" pos="117.30" speed="18.30"/>
            </lane>
        </edge>
    </timestep>
    <timestep time="21.90">
        <edge id="1to2">
            <lane id="1to2_0">
                <vehicle id="CACC2" pos="8.52" speed="3.26"/>
                <vehicle id="CACC1" pos="119.14" speed="18.43"/>
            </lane>
        </edge>
    </timestep>
    <timestep time="22.00">
        <edge id="1to2">
            <lane id="1to2_0">
                <vehicle id="CACC2" pos="8.86" speed="3.36"/>
                <vehicle id="CACC1" pos="120.99" speed="18.47"/>
            </lane>
        </edge>
    </timestep>
    <timestep time="22.10">
        <edge id="1to2">
            <lane id="1to2_0">
                <vehicle id="CACC2" pos="9.20" speed="3.38"/>
                <vehicle id="CACC1" pos="122.84" speed="18.53"/>
            </lane>
        </edge>
    </timestep>
    <timestep time="22.20">
        <edge id="1to2">
            <lane id="1to2_0">
                <vehicle id="CACC2" pos="9.56" speed="3.68"/>
                <vehicle id="CACC1" pos="124.71" speed="18.66"/>
            </lane>
        </edge>
    </timestep>
    <timestep time="22.30">
        <edge id="1to2">
            <lane id="1to2_0">