<?xml version="1.0" encoding="UTF-8"?>

<!-- generated on Mon Sep 23 02:17:59 2013 by SUMO sumo Version dev-SVN-r14700
<?xml version="1.0" encoding="UTF-8"?>

<configuration xmlns:xsi="http://www.w3.org/2001/XMLSchema-instance" xsi:noNamespaceSchemaLocation="http://sumo-sim.org/xsd/sumoConfiguration.xsd">

    <input>
        <net-file value="hello.net.xml"/>
        <route-files value="hello.rou.xml"/>
    </input>

    <output>
        <netstate-dump value="/home/mani/Desktop/C3PO/sumo/OptimalSpeed/dump.txt"/>
        <save-state.prefix value="state"/>
    </output>

    <time>
        <begin value="0"/>
        <end value="-1"/>
        <step-length value="0.1"/>
    </time>

    <report>
        <verbose value="true"/>
    </report>

    <traci_server>
        <remote-port value="50767"/>
    </traci_server>

    <random_number>
        <random value="false"/>
        <seed value="0"/>
    </random_number>

</configuration>
-->

<netstate xmlns:xsi="http://www.w3.org/2001/XMLSchema-instance" xsi:noNamespaceSchemaLocation="http://sumo-sim.org/xsd/netstate_file.xsd">
    <timestep time="0.00"/>
    <timestep time="0.10"/>
    <timestep time="0.20"/>
    <timestep time="0.30"/>
    <timestep time="0.40"/>
    <timestep time="0.50"/>
    <timestep time="0.60"/>
    <timestep time="0.70"/>
    <timestep time="0.80"/>
    <timestep time="0.90"/>
    <timestep time="1.00">
        <edge id="1to2">
            <lane id="1to2_0">
                <vehicle id="Manual" pos="5.10" speed="0.00"/>
            </lane>
        </edge>
    </timestep>
    <timestep time="1.10">
        <edge id="1to2">
            <lane id="1to2_0">
                <vehicle id="Manual" pos="6.10" speed="10.00"/>
            </lane>
        </edge>
    </timestep>
    <timestep time="1.20">
        <edge id="1to2">
            <lane id="1to2_0">
                <vehicle id="Manual" pos="8.10" speed="20.00"/>
            </lane>
        </edge>
    </timestep>
    <timestep time="1.30">
        <edge id="1to2">
            <lane id="1to2_0">
                <vehicle id="Manual" pos="10.90" speed="28.00"/>
            </lane>
        </edge>
    </timestep>
    <timestep time="1.40">
        <edge id="1to2">
            <lane id="1to2_0">
                <vehicle id="Manual" pos="13.70" speed="28.00"/>
            </lane>
        </edge>
    </timestep>
    <timestep time="1.50">
        <edge id="1to2">
            <lane id="1to2_0">
                <vehicle id="Manual" pos="16.50" speed="28.00"/>
            </lane>
        </edge>
    </timestep>
    <timestep time="1.60">
        <edge id="1to2">
            <lane id="1to2_0">
                <vehicle id="Manual" pos="19.30" speed="28.00"/>
            </lane>
        </edge>
    </timestep>
    <timestep time="1.70">
        <edge id="1to2">
            <lane id="1to2_0">
                <vehicle id="Manual" pos="22.10" speed="28.00"/>
            </lane>
        </edge>
    </timestep>
    <timestep time="1.80">
        <edge id="1to2">
            <lane id="1to2_0">
                <vehicle id="Manual" pos="24.90" speed="28.00"/>
            </lane>
        </edge>
    </timestep>
    <timestep time="1.90">
        <edge id="1to2">
            <lane id="1to2_0">
                <vehicle id="Manual" pos="27.70" speed="28.00"/>
            </lane>
        </edge>
    </timestep>
    <timestep time="2.00">
        <edge id="1to2">
            <lane id="1to2_0">
                <vehicle id="Manual" pos="30.50" speed="28.00"/>
            </lane>
        </edge>
    </timestep>
    <timestep time="2.10">
        <edge id="1to2">
            <lane id="1to2_0">
                <vehicle id="Manual" pos="33.30" speed="28.00"/>
            </lane>
        </edge>
    </timestep>
    <timestep time="2.20">
        <edge id="1to2">
            <lane id="1to2_0">
                <vehicle id="Manual" pos="36.10" speed="28.00"/>
            </lane>
        </edge>
    </timestep>
    <timestep time="2.30">
        <edge id="1to2">
            <lane id="1to2_0">
                <vehicle id="Manual" pos="38.90" speed="28.00"/>
            </lane>
        </edge>
    </timestep>
    <timestep time="2.40">
        <edge id="1to2">
            <lane id="1to2_0">
                <vehicle id="Manual" pos="41.70" speed="28.00"/>
            </lane>
        </edge>
    </timestep>
    <timestep time="2.50">
        <edge id="1to2">
            <lane id="1to2_0">
                <vehicle id="Manual" pos="44.50" speed="28.00"/>
            </lane>
        </edge>
    </timestep>
    <timestep time="2.60">
        <edge id="1to2">
            <lane id="1to2_0">
                <vehicle id="Manual" pos="47.30" speed="28.00"/>
            </lane>
        </edge>
    </timestep>
    <timestep time="2.70">
        <edge id="1to2">
            <lane id="1to2_0">
                <vehicle id="Manual" pos="50.10" speed="28.00"/>
            </lane>
        </edge>
    </timestep>
    <timestep time="2.80">
        <edge id="1to2">
            <lane id="1to2_0">
                <vehicle id="Manual" pos="52.90" speed="28.00"/>
            </lane>
        </edge>
    </timestep>
    <timestep time="2.90">
        <edge id="1to2">
            <lane id="1to2_0">
                <vehicle id="Manual" pos="55.70" speed="28.00"/>
            </lane>
        </edge>
    </timestep>
    <timestep time="3.00">
        <edge id="1to2">
            <lane id="1to2_0">
                <vehicle id="Manual" pos="58.50" speed="28.00"/>
            </lane>
        </edge>
    </timestep>
    <timestep time="3.10">
        <edge id="1to2">
            <lane id="1to2_0">
                <vehicle id="Manual" pos="61.30" speed="28.00"/>
            </lane>
        </edge>
    </timestep>
    <timestep time="3.20">
        <edge id="1to2">
            <lane id="1to2_0">
                <vehicle id="Manual" pos="64.10" speed="28.00"/>
            </lane>
        </edge>
    </timestep>
    <timestep time="3.30">
        <edge id="1to2">
            <lane id="1to2_0">
                <vehicle id="Manual" pos="66.90" speed="28.00"/>
            </lane>
        </edge>
    </timestep>
    <timestep time="3.40">
        <edge id="1to2">
            <lane id="1to2_0">
                <vehicle id="Manual" pos="69.70" speed="28.00"/>
            </lane>
        </edge>
    </timestep>
    <timestep time="3.50">
        <edge id="1to2">
            <lane id="1to2_0">
                <vehicle id="Manual" pos="72.50" speed="28.00"/>
            </lane>
        </edge>
    </timestep>
    <timestep time="3.60">
        <edge id="1to2">
            <lane id="1to2_0">
                <vehicle id="Manual" pos="75.30" speed="28.00"/>
            </lane>
        </edge>
    </timestep>
    <timestep time="3.70">
        <edge id="1to2">
            <lane id="1to2_0">
                <vehicle id="Manual" pos="78.10" speed="28.00"/>
            </lane>
        </edge>
    </timestep>
    <timestep time="3.80">
        <edge id="1to2">
            <lane id="1to2_0">
                <vehicle id="Manual" pos="80.90" speed="28.00"/>
            </lane>
        </edge>
    </timestep>
    <timestep time="3.90">
        <edge id="1to2">
            <lane id="1to2_0">
                <vehicle id="Manual" pos="83.70" speed="28.00"/>
            </lane>
        </edge>
    </timestep>
    <timestep time="4.00">
        <edge id="1to2">
            <lane id="1to2_0">
                <vehicle id="Manual" pos="86.50" speed="28.00"/>
            </lane>
        </edge>
    </timestep>
    <timestep time="4.10">
        <edge id="1to2">
            <lane id="1to2_0">
                <vehicle id="Manual" pos="89.30" speed="28.00"/>
            </lane>
        </edge>
    </timestep>
    <timestep time="4.20">
        <edge id="1to2">
            <lane id="1to2_0">
                <vehicle id="Manual" pos="92.10" speed="28.00"/>
            </lane>
        </edge>
    </timestep>
    <timestep time="4.30">
        <edge id="1to2">
            <lane id="1to2_0">
                <vehicle id="Manual" pos="94.90" speed="28.00"/>
            </lane>
        </edge>
    </timestep>
    <timestep time="4.40">
        <edge id="1to2">
            <lane id="1to2_0">
                <vehicle id="Manual" pos="97.70" speed="28.00"/>
            </lane>
        </edge>
    </timestep>
    <timestep time="4.50">
        <edge id="1to2">
            <lane id="1to2_0">
                <vehicle id="Manual" pos="100.50" speed="28.00"/>
            </lane>
        </edge>
    </timestep>
    <timestep time="4.60">
        <edge id="1to2">
            <lane id="1to2_0">
                <vehicle id="Manual" pos="103.30" speed="28.00"/>
            </lane>
        </edge>
    </timestep>
    <timestep time="4.70">
        <edge id="1to2">
            <lane id="1to2_0">
                <vehicle id="Manual" pos="106.10" speed="28.00"/>
            </lane>
        </edge>
    </timestep>
    <timestep time="4.80">
        <edge id="1to2">
            <lane id="1to2_0">
                <vehicle id="Manual" pos="108.90" speed="28.00"/>
            </lane>
        </edge>
    </timestep>
    <timestep time="4.90">
        <edge id="1to2">
            <lane id="1to2_0">
                <vehicle id="Manual" pos="111.70" speed="28.00"/>
            </lane>
        </edge>
    </timestep>
    <timestep time="5.00">
        <edge id="1to2">
            <lane id="1to2_0">
                <vehicle id="ACC" pos="5.10" speed="0.00"/>
                <vehicle id="Manual" pos="114.50" speed="28.00"/>
            </lane>
        </edge>
    </timestep>
    <timestep time="5.10">
        <edge id="1to2">
            <lane id="1to2_0">
                <vehicle id="ACC" pos="5.66" speed="5.60"/>
                <vehicle id="Manual" pos="117.30" speed="28.00"/>
            </lane>
        </edge>
    </timestep>
    <timestep time="5.20">
        <edge id="1to2">
            <lane id="1to2_0">
                <vehicle id="ACC" pos="6.67" speed="10.08"/>
                <vehicle id="Manual" pos="120.10" speed="28.00"/>
            </lane>
        </edge>
    </timestep>
    <timestep time="5.30">
        <edge id="1to2">
            <lane id="1to2_0">
                <vehicle id="ACC" pos="8.03" speed="13.66"/>
                <vehicle id="Manual" pos="122.90" speed="28.00"/>
            </lane>
        </edge>
    </timestep>
    <timestep time="5.40">
        <edge id="1to2">
            <lane id="1to2_0">
                <vehicle id="ACC" pos="9.69" speed="16.53"/>
                <vehicle id="Manual" pos="125.70" speed="28.00"/>
            </lane>
        </edge>
    </timestep>
    <timestep time="5.50">
        <edge id="1to2">
            <lane id="1to2_0">
                <vehicle id="ACC" pos="11.57" speed="18.82"/>
                <vehicle id="Manual" pos="128.50" speed="28.00"/>
            </lane>
        </edge>
    </timestep>
    <timestep time="5.60">
        <edge id="1to2">
            <lane id="1to2_0">
                <vehicle id="ACC" pos="13.64" speed="20.66"/>
                <vehicle id="Manual" pos="131.30" speed="28.00"/>
            </lane>
        </edge>
    </timestep>
    <timestep time="5.70">
        <edge id="1to2">
            <lane id="1to2_0">
                <vehicle id="ACC" pos="15.85" speed="22.13"/>
                <vehicle id="Manual" pos="134.10" speed="28.00"/>
            </lane>
        </edge>
    </timestep>
    <timestep time="5.80">
        <edge id="1to2">
            <lane id="1to2_0">
                <vehicle id="ACC" pos="18.18" speed="23.30"/>
                <vehicle id="Manual" pos="136.90" speed="28.00"/>
            </lane>
        </edge>
    </timestep>
    <timestep time="5.90">
        <edge id="1to2">
            <lane id="1to2_0">
                <vehicle id="ACC" pos="20.60" speed="24.24"/>
                <vehicle id="Manual" pos="139.70" speed="28.00"/>
            </lane>
        </edge>
    </timestep>
    <timestep time="6.00">
        <edge id="1to2">
            <lane id="1to2_0">
                <vehicle id="ACC" pos="23.10" speed="24.99"/>
                <vehicle id="Manual" pos="142.50" speed="28.00"/>
            </lane>
        </edge>
    </timestep>
    <timestep time="6.10">
        <edge id="1to2">
            <lane id="1to2_0">
                <vehicle id="ACC" pos="25.66" speed="25.59"/>
                <vehicle id="Manual" pos="145.30" speed="28.00"/>
            </lane>
        </edge>
    </timestep>
    <timestep time="6.20">
        <edge id="1to2">
            <lane id="1to2_0">
                <vehicle id="ACC" pos="28.27" speed="26.08"/>
                <vehicle id="Manual" pos="148.10" speed="28.00"/>
            </lane>
        </edge>
    </timestep>
    <timestep time="6.30">
        <edge id="1to2">
            <lane id="1to2_0">
                <vehicle id="ACC" pos="30.92" speed="26.46"/>
                <vehicle id="Manual" pos="150.90" speed="28.00"/>
            </lane>
        </edge>
    </timestep>
    <timestep time="6.40">
        <edge id="1to2">
            <lane id="1to2_0">
                <vehicle id="ACC" pos="33.59" speed="26.77"/>
                <vehicle id="Manual" pos="153.70" speed="28.00"/>
            </lane>
        </edge>
    </timestep>
    <timestep time="6.50">
        <edge id="1to2">
            <lane id="1to2_0">
                <vehicle id="ACC" pos="36.29" speed="27.01"/>
                <vehicle id="Manual" pos="156.50" speed="28.00"/>
            </lane>
        </edge>
    </timestep>
    <timestep time="6.60">
        <edge id="1to2">
            <lane id="1to2_0">
                <vehicle id="ACC" pos="39.02" speed="27.21"/>
                <vehicle id="Manual" pos="159.30" speed="28.00"/>
            </lane>
        </edge>
    </timestep>
    <timestep time="6.70">
        <edge id="1to2">
            <lane id="1to2_0">
                <vehicle id="ACC" pos="41.75" speed="27.37"/>
                <vehicle id="Manual" pos="162.10" speed="28.00"/>
            </lane>
        </edge>
    </timestep>
    <timestep time="6.80">
        <edge id="1to2">
            <lane id="1to2_0">
                <vehicle id="ACC" pos="44.50" speed="27.50"/>
                <vehicle id="Manual" pos="164.90" speed="28.00"/>
            </lane>
        </edge>
    </timestep>
    <timestep time="6.90">
        <edge id="1to2">
            <lane id="1to2_0">
                <vehicle id="ACC" pos="47.26" speed="27.60"/>
                <vehicle id="Manual" pos="167.70" speed="28.00"/>
            </lane>
        </edge>
    </timestep>
    <timestep time="7.00">
        <edge id="1to2">
            <lane id="1to2_0">
                <vehicle id="ACC" pos="50.03" speed="27.68"/>
                <vehicle id="Manual" pos="170.50" speed="28.00"/>
            </lane>
        </edge>
    </timestep>
    <timestep time="7.10">
        <edge id="1to2">
            <lane id="1to2_0">
                <vehicle id="ACC" pos="52.80" speed="27.74"/>
                <vehicle id="Manual" pos="173.30" speed="28.00"/>
            </lane>
        </edge>
    </timestep>
    <timestep time="7.20">
        <edge id="1to2">
            <lane id="1to2_0">
                <vehicle id="ACC" pos="55.58" speed="27.79"/>
                <vehicle id="Manual" pos="176.10" speed="28.00"/>
            </lane>
        </edge>
    </timestep>
    <timestep time="7.30">
        <edge id="1to2">
            <lane id="1to2_0">
                <vehicle id="ACC" pos="58.37" speed="27.83"/>
                <vehicle id="Manual" pos="178.90" speed="28.00"/>
            </lane>
        </edge>
    </timestep>
    <timestep time="7.40">
        <edge id="1to2">
            <lane id="1to2_0">
                <vehicle id="ACC" pos="61.15" speed="27.87"/>
                <vehicle id="Manual" pos="181.70" speed="28.00"/>
            </lane>
        </edge>
    </timestep>
    <timestep time="7.50">
        <edge id="1to2">
            <lane id="1to2_0">
                <vehicle id="ACC" pos="63.94" speed="27.89"/>
                <vehicle id="Manual" pos="184.50" speed="28.00"/>
            </lane>
        </edge>
    </timestep>
    <timestep time="7.60">
        <edge id="1to2">
            <lane id="1to2_0">
                <vehicle id="ACC" pos="66.73" speed="27.92"/>
                <vehicle id="Manual" pos="187.30" speed="28.00"/>
            </lane>
        </edge>
    </timestep>
    <timestep time="7.70">
        <edge id="1to2">
            <lane id="1to2_0">
                <vehicle id="ACC" pos="69.53" speed="27.93"/>
                <vehicle id="Manual" pos="190.10" speed="28.00"/>
            </lane>
        </edge>
    </timestep>
    <timestep time="7.80">
        <edge id="1to2">
            <lane id="1to2_0">
                <vehicle id="ACC" pos="72.32" speed="27.95"/>
                <vehicle id="Manual" pos="192.90" speed="28.00"/>
            </lane>
        </edge>
    </timestep>
    <timestep time="7.90">
        <edge id="1to2">
            <lane id="1to2_0">
                <vehicle id="ACC" pos="75.12" speed="27.96"/>
                <vehicle id="Manual" pos="195.70" speed="28.00"/>
            </lane>
        </edge>
    </timestep>
    <timestep time="8.00">
        <edge id="1to2">
            <lane id="1to2_0">
                <vehicle id="ACC" pos="77.91" speed="27.97"/>
                <vehicle id="Manual" pos="198.50" speed="28.00"/>
            </lane>
        </edge>
    </timestep>
    <timestep time="8.10">
        <edge id="1to2">
            <lane id="1to2_0">
                <vehicle id="ACC" pos="80.71" speed="27.97"/>
                <vehicle id="Manual" pos="201.30" speed="28.00"/>
            </lane>
        </edge>
    </timestep>
    <timestep time="8.20">
        <edge id="1to2">
            <lane id="1to2_0">
                <vehicle id="ACC" pos="83.51" speed="27.98"/>
                <vehicle id="Manual" pos="204.10" speed="28.00"/>
            </lane>
        </edge>
    </timestep>
    <timestep time="8.30">
        <edge id="1to2">
            <lane id="1to2_0">
                <vehicle id="ACC" pos="86.31" speed="27.98"/>
                <vehicle id="Manual" pos="206.90" speed="28.00"/>
            </lane>
        </edge>
    </timestep>
    <timestep time="8.40">
        <edge id="1to2">
            <lane id="1to2_0">
                <vehicle id="ACC" pos="89.11" speed="27.99"/>
                <vehicle id="Manual" pos="209.70" speed="28.00"/>
            </lane>
        </edge>
    </timestep>
    <timestep time="8.50">
        <edge id="1to2">
            <lane id="1to2_0">
                <vehicle id="ACC" pos="91.90" speed="27.99"/>
                <vehicle id="Manual" pos="212.50" speed="28.00"/>
            </lane>
        </edge>
    </timestep>
    <timestep time="8.60">
        <edge id="1to2">
            <lane id="1to2_0">
                <vehicle id="ACC" pos="94.70" speed="27.99"/>
                <vehicle id="Manual" pos="215.30" speed="28.00"/>
            </lane>
        </edge>
    </timestep>
    <timestep time="8.70">
        <edge id="1to2">
            <lane id="1to2_0">
                <vehicle id="ACC" pos="97.50" speed="27.99"/>
                <vehicle id="Manual" pos="218.10" speed="28.00"/>
            </lane>
        </edge>
    </timestep>
    <timestep time="8.80">
        <edge id="1to2">
            <lane id="1to2_0">
                <vehicle id="ACC" pos="100.30" speed="27.99"/>
                <vehicle id="Manual" pos="220.90" speed="28.00"/>
            </lane>
        </edge>
    </timestep>
    <timestep time="8.90">
        <edge id="1to2">
            <lane id="1to2_0">
                <vehicle id="ACC" pos="103.10" speed="28.00"/>
                <vehicle id="Manual" pos="223.70" speed="28.00"/>
            </lane>
        </edge>
    </timestep>
    <timestep time="9.00">
        <edge id="1to2">
            <lane id="1to2_0">
                <vehicle id="ACC" pos="105.90" speed="28.00"/>
                <vehicle id="Manual" pos="226.50" speed="28.00"/>
            </lane>
        </edge>
    </timestep>
    <timestep time="9.10">
        <edge id="1to2">
            <lane id="1to2_0">
                <vehicle id="ACC" pos="108.70" speed="28.00"/>
                <vehicle id="Manual" pos="229.30" speed="28.00"/>
            </lane>
        </edge>
    </timestep>
    <timestep time="9.20">
        <edge id="1to2">
            <lane id="1to2_0">
                <vehicle id="ACC" pos="111.50" speed="28.00"/>
                <vehicle id="Manual" pos="232.10" speed="28.00"/>
            </lane>
        </edge>
    </timestep>
    <timestep time="9.30">
        <edge id="1to2">
            <lane id="1to2_0">
                <vehicle id="ACC" pos="114.30" speed="28.00"/>
                <vehicle id="Manual" pos="234.90" speed="28.00"/>
            </lane>
        </edge>
    </timestep>
    <timestep time="9.40">
        <edge id="1to2">
            <lane id="1to2_0">
                <vehicle id="ACC" pos="117.10" speed="28.00"/>
                <vehicle id="Manual" pos="237.70" speed="28.00"/>
            </lane>
        </edge>
    </timestep>
    <timestep time="9.50">
        <edge id="1to2">
            <lane id="1to2_0">
                <vehicle id="ACC" pos="119.90" speed="28.00"/>
                <vehicle id="Manual" pos="240.50" speed="28.00"/>
            </lane>
        </edge>
    </timestep>
    <timestep time="9.60">
        <edge id="1to2">
            <lane id="1to2_0">
                <vehicle id="ACC" pos="122.70" speed="28.00"/>
                <vehicle id="Manual" pos="243.30" speed="28.00"/>
            </lane>
        </edge>
    </timestep>
    <timestep time="9.70">
        <edge id="1to2">
            <lane id="1to2_0">
                <vehicle id="ACC" pos="125.50" speed="28.00"/>
                <vehicle id="Manual" pos="246.10" speed="28.00"/>
            </lane>
        </edge>
    </timestep>
    <timestep time="9.80">
        <edge id="1to2">
            <lane id="1to2_0">
                <vehicle id="ACC" pos="128.30" speed="28.00"/>
                <vehicle id="Manual" pos="248.90" speed="28.00"/>
            </lane>
        </edge>
    </timestep>
    <timestep time="9.90">
        <edge id="1to2">
            <lane id="1to2_0">
                <vehicle id="ACC" pos="131.10" speed="28.00"/>
                <vehicle id="Manual" pos="251.70" speed="28.00"/>
            </lane>
        </edge>
    </timestep>
    <timestep time="10.00">
        <edge id="1to2">
            <lane id="1to2_0">
                <vehicle id="CACC" pos="5.10" speed="0.00"/>
                <vehicle id="ACC" pos="133.90" speed="28.00"/>
                <vehicle id="Manual" pos="254.50" speed="28.00"/>
            </lane>
        </edge>
    </timestep>
    <timestep time="10.10">
        <edge id="1to2">
            <lane id="1to2_0">
                <vehicle id="CACC" pos="6.10" speed="10.00"/>
                <vehicle id="ACC" pos="136.70" speed="28.00"/>
                <vehicle id="Manual" pos="257.30" speed="28.00"/>
            </lane>
        </edge>
    </timestep>
    <timestep time="10.20">
        <edge id="1to2">
            <lane id="1to2_0">
                <vehicle id="CACC" pos="7.82" speed="17.20"/>
                <vehicle id="ACC" pos="139.50" speed="28.00"/>
                <vehicle id="Manual" pos="260.10" speed="28.00"/>
            </lane>
        </edge>
    </timestep>
    <timestep time="10.30">
        <edge id="1to2">
            <lane id="1to2_0">
                <vehicle id="CACC" pos="9.97" speed="21.52"/>
                <vehicle id="ACC" pos="142.30" speed="28.00"/>
                <vehicle id="Manual" pos="262.90" speed="28.00"/>
            </lane>
        </edge>
    </timestep>
    <timestep time="10.40">
        <edge id="1to2">
            <lane id="1to2_0">
                <vehicle id="CACC" pos="12.38" speed="24.11"/>
                <vehicle id="ACC" pos="145.10" speed="28.00"/>
                <vehicle id="Manual" pos="265.70" speed="28.00"/>
            </lane>
        </edge>
    </timestep>
    <timestep time="10.50">
        <edge id="1to2">
            <lane id="1to2_0">
                <vehicle id="CACC" pos="14.95" speed="25.67"/>
                <vehicle id="ACC" pos="147.90" speed="28.00"/>
                <vehicle id="Manual" pos="268.50" speed="28.00"/>
            </lane>
        </edge>
    </timestep>
    <timestep time="10.60">
        <edge id="1to2">
            <lane id="1to2_0">
                <vehicle id="CACC" pos="17.61" speed="26.60"/>
                <vehicle id="ACC" pos="150.70" speed="28.00"/>
                <vehicle id="Manual" pos="271.30" speed="28.00"/>
            </lane>
        </edge>
    </timestep>
    <timestep time="10.70">
        <edge id="1to2">
            <lane id="1to2_0">
                <vehicle id="CACC" pos="20.33" speed="27.16"/>
                <vehicle id="ACC" pos="153.50" speed="28.00"/>
                <vehicle id="Manual" pos="274.10" speed="28.00"/>
            </lane>
        </edge>
    </timestep>
    <timestep time="10.80">
        <edge id="1to2">
            <lane id="1to2_0">
                <vehicle id="CACC" pos="23.08" speed="27.50"/>
                <vehicle id="ACC" pos="156.30" speed="28.00"/>
                <vehicle id="Manual" pos="276.90" speed="28.00"/>
            </lane>
        </edge>
    </timestep>
    <timestep time="10.90">
        <edge id="1to2">
            <lane id="1to2_0">
                <vehicle id="CACC" pos="25.85" speed="27.70"/>
                <vehicle id="ACC" pos="159.10" speed="28.00"/>
                <vehicle id="Manual" pos="279.70" speed="28.00"/>
            </lane>
        </edge>
    </timestep>
    <timestep time="11.00">
        <edge id="1to2">
            <lane id="1to2_0">
                <vehicle id="CACC" pos="28.63" speed="27.82"/>
                <vehicle id="ACC" pos="161.90" speed="28.00"/>
                <vehicle id="Manual" pos="282.50" speed="28.00"/>
            </lane>
        </edge>
    </timestep>
    <timestep time="11.10">
        <edge id="1to2">
            <lane id="1to2_0">
                <vehicle id="CACC" pos="31.42" speed="27.89"/>
                <vehicle id="ACC" pos="164.70" speed="28.00"/>
                <vehicle id="Manual" pos="285.30" speed="28.00"/>
            </lane>
        </edge>
    </timestep>
    <timestep time="11.20">
        <edge id="1to2">
            <lane id="1to2_0">
                <vehicle id="CACC" pos="34.21" speed="27.93"/>
                <vehicle id="ACC" pos="167.50" speed="28.00"/>
                <vehicle id="Manual" pos="288.10" speed="28.00"/>
            </lane>
        </edge>
    </timestep>
    <timestep time="11.30">
        <edge id="1to2">
            <lane id="1to2_0">
                <vehicle id="CACC" pos="37.01" speed="27.96"/>
                <vehicle id="ACC" pos="170.30" speed="28.00"/>
                <vehicle id="Manual" pos="290.90" speed="28.00"/>
            </lane>
        </edge>
    </timestep>
    <timestep time="11.40">
        <edge id="1to2">
            <lane id="1to2_0">
                <vehicle id="CACC" pos="39.80" speed="27.98"/>
                <vehicle id="ACC" pos="173.10" speed="28.00"/>
                <vehicle id="Manual" pos="293.70" speed="28.00"/>
            </lane>
        </edge>
    </timestep>
    <timestep time="11.50">
        <edge id="1to2">
            <lane id="1to2_0">
                <vehicle id="CACC" pos="42.60" speed="27.99"/>
                <vehicle id="ACC" pos="175.90" speed="28.00"/>
                <vehicle id="Manual" pos="296.50" speed="28.00"/>
            </lane>
        </edge>
    </timestep>
    <timestep time="11.60">
        <edge id="1to2">
            <lane id="1to2_0">
                <vehicle id="CACC" pos="45.40" speed="27.99"/>
                <vehicle id="ACC" pos="178.70" speed="28.00"/>
                <vehicle id="Manual" pos="299.30" speed="28.00"/>
            </lane>
        </edge>
    </timestep>
    <timestep time="11.70">
        <edge id="1to2">
            <lane id="1to2_0">
                <vehicle id="CACC" pos="48.20" speed="27.99"/>
                <vehicle id="ACC" pos="181.50" speed="28.00"/>
                <vehicle id="Manual" pos="302.10" speed="28.00"/>
            </lane>
        </edge>
    </timestep>
    <timestep time="11.80">
        <edge id="1to2">
            <lane id="1to2_0">
                <vehicle id="CACC" pos="51.00" speed="28.00"/>
                <vehicle id="ACC" pos="184.30" speed="28.00"/>
                <vehicle id="Manual" pos="304.90" speed="28.00"/>
            </lane>
        </edge>
    </timestep>
    <timestep time="11.90">
        <edge id="1to2">
            <lane id="1to2_0">
                <vehicle id="CACC" pos="53.80" speed="28.00"/>
                <vehicle id="ACC" pos="187.10" speed="28.00"/>
                <vehicle id="Manual" pos="307.70" speed="28.00"/>
            </lane>
        </edge>
    </timestep>
    <timestep time="12.00">
        <edge id="1to2">
            <lane id="1to2_0">
                <vehicle id="CACC" pos="56.60" speed="28.00"/>
                <vehicle id="ACC" pos="189.90" speed="28.00"/>
                <vehicle id="Manual" pos="310.50" speed="28.00"/>
            </lane>
        </edge>
    </timestep>
    <timestep time="12.10">
        <edge id="1to2">
            <lane id="1to2_0">
                <vehicle id="CACC" pos="59.40" speed="28.00"/>
                <vehicle id="ACC" pos="192.70" speed="28.00"/>
                <vehicle id="Manual" pos="313.30" speed="28.00"/>
            </lane>
        </edge>
    </timestep>
    <timestep time="12.20">
        <edge id="1to2">
            <lane id="1to2_0">
                <vehicle id="CACC" pos="62.20" speed="28.00"/>
                <vehicle id="ACC" pos="195.50" speed="28.00"/>