<?xml version="1.0" encoding="UTF-8"?>

<!-- generated on Sun 19 Oct 2014 01:26:37 PM PDT by SUMO gui Version dev-SVN-r16824
<?xml version="1.0" encoding="UTF-8"?>

<configuration xmlns:xsi="http://www.w3.org/2001/XMLSchema-instance" xsi:noNamespaceSchemaLocation="http://sumo-sim.org/xsd/sumo-gui.exeConfiguration.xsd">

    <input>
        <net-file value="/home/mani/Desktop/SUMO_Debug/hello.net.xml"/>
        <route-files value="/home/mani/Desktop/SUMO_Debug/hello.rou.xml"/>
    </input>

    <output>
        <netstate-dump value="/home/mani/Desktop/VENTOS/sumo/OptimalSpeed/dump.txt"/>
        <save-state.prefix value="/home/mani/Desktop/SUMO_Debug/state"/>
    </output>

    <time>
        <begin value="0"/>
        <end value="-1"/>
        <step-length value="0.1"/>
    </time>

    <report>
        <verbose value="true"/>
    </report>

    <emissions>
        <phemlight-path value="/home/mani/Desktop/SUMO_Debug/./PHEMlight/"/>
    </emissions>

</configuration>
-->

<netstate xmlns:xsi="http://www.w3.org/2001/XMLSchema-instance" xsi:noNamespaceSchemaLocation="http://sumo-sim.org/xsd/netstate_file.xsd">
</netstate>
