<?xml version="1.0" encoding="UTF-8"?>

<!-- generated on Wed Oct  9 20:31:44 2013 by SUMO sumo Version dev-SVN-r14776
<?xml version="1.0" encoding="UTF-8"?>

<configuration xmlns:xsi="http://www.w3.org/2001/XMLSchema-instance" xsi:noNamespaceSchemaLocation="http://sumo-sim.org/xsd/sumoConfiguration.xsd">

    <input>
        <net-file value="hello.net.xml"/>
        <route-files value="hello.rou.xml"/>
    </input>

    <output>
        <netstate-dump value="/home/mani/Desktop/C3PO/sumo/KraussOrig1/dump.txt"/>
        <save-state.prefix value="state"/>
    </output>

    <time>
        <begin value="0"/>
        <end value="-1"/>
        <step-length value="0.1"/>
    </time>

    <report>
        <verbose value="true"/>
    </report>

    <traci_server>
        <remote-port value="54072"/>
    </traci_server>

    <random_number>
        <random value="false"/>
        <seed value="0"/>
    </random_number>

</configuration>
-->

<netstate xmlns:xsi="http://www.w3.org/2001/XMLSchema-instance" xsi:noNamespaceSchemaLocation="http://sumo-sim.org/xsd/netstate_file.xsd">
    <timestep time="0.00"/>
    <timestep time="0.10"/>
    <timestep time="0.20"/>
    <timestep time="0.30"/>
    <timestep time="0.40"/>
    <timestep time="0.50"/>
    <timestep time="0.60"/>
    <timestep time="0.70"/>
    <timestep time="0.80"/>
    <timestep time="0.90"/>
    <timestep time="1.00">
        <edge id="1to2">
            <lane id="1to2_0">
                <vehicle id="Manual" pos="5.10" speed="0.00"/>
            </lane>
        </edge>
    </timestep>
    <timestep time="1.10">
        <edge id="1to2">
            <lane id="1to2_0">
                <vehicle id="Manual" pos="5.12" speed="0.20"/>
            </lane>
        </edge>
    </timestep>
    <timestep time="1.20">
        <edge id="1to2">
            <lane id="1to2_0">
                <vehicle id="Manual" pos="5.16" speed="0.40"/>
            </lane>
        </edge>
    </timestep>
    <timestep time="1.30">
        <edge id="1to2">
            <lane id="1to2_0">
                <vehicle id="Manual" pos="5.22" speed="0.60"/>
            </lane>
        </edge>
    </timestep>
    <timestep time="1.40">
        <edge id="1to2">
            <lane id="1to2_0">
                <vehicle id="Manual" pos="5.30" speed="0.80"/>
            </lane>
        </edge>
    </timestep>
    <timestep time="1.50">
        <edge id="1to2">
            <lane id="1to2_0">
                <vehicle id="Manual" pos="5.40" speed="1.00"/>
            </lane>
        </edge>
    </timestep>
    <timestep time="1.60">
        <edge id="1to2">
            <lane id="1to2_0">
                <vehicle id="Manual" pos="5.52" speed="1.20"/>
            </lane>
        </edge>
    </timestep>
    <timestep time="1.70">
        <edge id="1to2">
            <lane id="1to2_0">
                <vehicle id="Manual" pos="5.66" speed="1.40"/>
            </lane>
        </edge>
    </timestep>
    <timestep time="1.80">
        <edge id="1to2">
            <lane id="1to2_0">
                <vehicle id="Manual" pos="5.82" speed="1.60"/>
            </lane>
        </edge>
    </timestep>
    <timestep time="1.90">
        <edge id="1to2">
            <lane id="1to2_0">
                <vehicle id="Manual" pos="6.00" speed="1.80"/>
            </lane>
        </edge>
    </timestep>
    <timestep time="2.00">
        <edge id="1to2">
            <lane id="1to2_0">
                <vehicle id="Manual" pos="6.20" speed="2.00"/>
            </lane>
        </edge>
    </timestep>
    <timestep time="2.10">
        <edge id="1to2">
            <lane id="1to2_0">
                <vehicle id="Manual" pos="6.42" speed="2.20"/>
            </lane>
        </edge>
    </timestep>
    <timestep time="2.20">
        <edge id="1to2">
            <lane id="1to2_0">
                <vehicle id="Manual" pos="6.66" speed="2.40"/>
            </lane>
        </edge>
    </timestep>
    <timestep time="2.30">
        <edge id="1to2">
            <lane id="1to2_0">
                <vehicle id="Manual" pos="6.92" speed="2.60"/>
            </lane>
        </edge>
    </timestep>
    <timestep time="2.40">
        <edge id="1to2">
            <lane id="1to2_0">
                <vehicle id="Manual" pos="7.20" speed="2.80"/>
            </lane>
        </edge>
    </timestep>
    <timestep time="2.50">
        <edge id="1to2">
            <lane id="1to2_0">
                <vehicle id="Manual" pos="7.50" speed="3.00"/>
            </lane>
        </edge>
    </timestep>
    <timestep time="2.60">
        <edge id="1to2">
            <lane id="1to2_0">
                <vehicle id="Manual" pos="7.82" speed="3.20"/>
            </lane>
        </edge>
    </timestep>
    <timestep time="2.70">
        <edge id="1to2">
            <lane id="1to2_0">
                <vehicle id="Manual" pos="8.16" speed="3.40"/>
            </lane>
        </edge>
    </timestep>
    <timestep time="2.80">
        <edge id="1to2">
            <lane id="1to2_0">
                <vehicle id="Manual" pos="8.52" speed="3.60"/>
            </lane>
        </edge>
    </timestep>
    <timestep time="2.90">
        <edge id="1to2">
            <lane id="1to2_0">
                <vehicle id="Manual" pos="8.90" speed="3.80"/>
            </lane>
        </edge>
    </timestep>
    <timestep time="3.00">
        <edge id="1to2">
            <lane id="1to2_0">
                <vehicle id="Manual" pos="9.30" speed="4.00"/>
            </lane>
        </edge>
    </timestep>
    <timestep time="3.10">
        <edge id="1to2">
            <lane id="1to2_0">
                <vehicle id="Manual" pos="9.72" speed="4.20"/>
            </lane>
        </edge>
    </timestep>
    <timestep time="3.20">
        <edge id="1to2">
            <lane id="1to2_0">
                <vehicle id="Manual" pos="10.16" speed="4.40"/>
            </lane>
        </edge>
    </timestep>
    <timestep time="3.30">
        <edge id="1to2">
            <lane id="1to2_0">
                <vehicle id="Manual" pos="10.62" speed="4.60"/>
            </lane>
        </edge>
    </timestep>
    <timestep time="3.40">
        <edge id="1to2">
            <lane id="1to2_0">
                <vehicle id="Manual" pos="11.10" speed="4.80"/>
            </lane>
        </edge>
    </timestep>
    <timestep time="3.50">
        <edge id="1to2">
            <lane id="1to2_0">
                <vehicle id="Manual" pos="11.60" speed="5.00"/>
            </lane>
        </edge>
    </timestep>
    <timestep time="3.60">
        <edge id="1to2">
            <lane id="1to2_0">
                <vehicle id="Manual" pos="12.12" speed="5.20"/>
            </lane>
        </edge>
    </timestep>
    <timestep time="3.70">
        <edge id="1to2">
            <lane id="1to2_0">
                <vehicle id="Manual" pos="12.66" speed="5.40"/>
            </lane>
        </edge>
    </timestep>
    <timestep time="3.80">
        <edge id="1to2">
            <lane id="1to2_0">
                <vehicle id="Manual" pos="13.22" speed="5.60"/>
            </lane>
        </edge>
    </timestep>
    <timestep time="3.90">
        <edge id="1to2">
            <lane id="1to2_0">
                <vehicle id="Manual" pos="13.80" speed="5.80"/>
            </lane>
        </edge>
    </timestep>
    <timestep time="4.00">
        <edge id="1to2">
            <lane id="1to2_0">
                <vehicle id="Manual" pos="14.40" speed="6.00"/>
            </lane>
        </edge>
    </timestep>
    <timestep time="4.10">
        <edge id="1to2">
            <lane id="1to2_0">
                <vehicle id="Manual" pos="15.02" speed="6.20"/>
            </lane>
        </edge>
    </timestep>
    <timestep time="4.20">
        <edge id="1to2">
            <lane id="1to2_0">
                <vehicle id="Manual" pos="15.66" speed="6.40"/>
            </lane>
        </edge>
    </timestep>
    <timestep time="4.30">
        <edge id="1to2">
            <lane id="1to2_0">
                <vehicle id="Manual" pos="16.32" speed="6.60"/>
            </lane>
        </edge>
    </timestep>
    <timestep time="4.40">
        <edge id="1to2">
            <lane id="1to2_0">
                <vehicle id="Manual" pos="17.00" speed="6.80"/>
            </lane>
        </edge>
    </timestep>
    <timestep time="4.50">
        <edge id="1to2">
            <lane id="1to2_0">
                <vehicle id="Manual" pos="17.70" speed="7.00"/>
            </lane>
        </edge>
    </timestep>
    <timestep time="4.60">
        <edge id="1to2">
            <lane id="1to2_0">
                <vehicle id="Manual" pos="18.42" speed="7.20"/>
            </lane>
        </edge>
    </timestep>
    <timestep time="4.70">
        <edge id="1to2">
            <lane id="1to2_0">
                <vehicle id="Manual" pos="19.16" speed="7.40"/>
            </lane>
        </edge>
    </timestep>
    <timestep time="4.80">
        <edge id="1to2">
            <lane id="1to2_0">
                <vehicle id="Manual" pos="19.92" speed="7.60"/>
            </lane>
        </edge>
    </timestep>
    <timestep time="4.90">
        <edge id="1to2">
            <lane id="1to2_0">
                <vehicle id="Manual" pos="20.70" speed="7.80"/>
            </lane>
        </edge>
    </timestep>
    <timestep time="5.00">
        <edge id="1to2">
            <lane id="1to2_0">
                <vehicle id="ACC" pos="5.10" speed="0.00"/>
                <vehicle id="Manual" pos="21.50" speed="8.00"/>
            </lane>
        </edge>
    </timestep>
    <timestep time="5.10">
        <edge id="1to2">
            <lane id="1to2_0">
                <vehicle id="ACC" pos="5.12" speed="0.20"/>
                <vehicle id="Manual" pos="22.32" speed="8.20"/>
            </lane>
        </edge>
    </timestep>
    <timestep time="5.20">
        <edge id="1to2">
            <lane id="1to2_0">
                <vehicle id="ACC" pos="5.16" speed="0.40"/>
                <vehicle id="Manual" pos="23.16" speed="8.40"/>
            </lane>
        </edge>
    </timestep>
    <timestep time="5.30">
        <edge id="1to2">
            <lane id="1to2_0">
                <vehicle id="ACC" pos="5.22" speed="0.60"/>
                <vehicle id="Manual" pos="24.02" speed="8.60"/>
            </lane>
        </edge>
    </timestep>
    <timestep time="5.40">
        <edge id="1to2">
            <lane id="1to2_0">
                <vehicle id="ACC" pos="5.30" speed="0.80"/>
                <vehicle id="Manual" pos="24.90" speed="8.80"/>
            </lane>
        </edge>
    </timestep>
    <timestep time="5.50">
        <edge id="1to2">
            <lane id="1to2_0">
                <vehicle id="ACC" pos="5.40" speed="1.00"/>
                <vehicle id="Manual" pos="25.80" speed="9.00"/>
            </lane>
        </edge>
    </timestep>
    <timestep time="5.60">
        <edge id="1to2">
            <lane id="1to2_0">
                <vehicle id="ACC" pos="5.52" speed="1.20"/>
                <vehicle id="Manual" pos="26.72" speed="9.20"/>
            </lane>
        </edge>
    </timestep>
    <timestep time="5.70">
        <edge id="1to2">
            <lane id="1to2_0">
                <vehicle id="ACC" pos="5.66" speed="1.40"/>
                <vehicle id="Manual" pos="27.66" speed="9.40"/>
            </lane>
        </edge>
    </timestep>
    <timestep time="5.80">
        <edge id="1to2">
            <lane id="1to2_0">
                <vehicle id="ACC" pos="5.82" speed="1.60"/>
                <vehicle id="Manual" pos="28.62" speed="9.60"/>
            </lane>
        </edge>
    </timestep>
    <timestep time="5.90">
        <edge id="1to2">
            <lane id="1to2_0">
                <vehicle id="ACC" pos="6.00" speed="1.80"/>
                <vehicle id="Manual" pos="29.60" speed="9.80"/>
            </lane>
        </edge>
    </timestep>
    <timestep time="6.00">
        <edge id="1to2">
            <lane id="1to2_0">
                <vehicle id="ACC" pos="6.20" speed="2.00"/>
                <vehicle id="Manual" pos="30.60" speed="10.00"/>
            </lane>
        </edge>
    </timestep>
    <timestep time="6.10">
        <edge id="1to2">
            <lane id="1to2_0">
                <vehicle id="ACC" pos="6.42" speed="2.20"/>
                <vehicle id="Manual" pos="31.62" speed="10.20"/>
            </lane>
        </edge>
    </timestep>
    <timestep time="6.20">
        <edge id="1to2">
            <lane id="1to2_0">
                <vehicle id="ACC" pos="6.66" speed="2.40"/>
                <vehicle id="Manual" pos="32.66" speed="10.40"/>
            </lane>
        </edge>
    </timestep>
    <timestep time="6.30">
        <edge id="1to2">
            <lane id="1to2_0">
                <vehicle id="ACC" pos="6.92" speed="2.60"/>
                <vehicle id="Manual" pos="33.72" speed="10.60"/>
            </lane>
        </edge>
    </timestep>
    <timestep time="6.40">
        <edge id="1to2">
            <lane id="1to2_0">
                <vehicle id="ACC" pos="7.20" speed="2.80"/>
                <vehicle id="Manual" pos="34.80" speed="10.80"/>
            </lane>
        </edge>
    </timestep>
    <timestep time="6.50">
        <edge id="1to2">
            <lane id="1to2_0">
                <vehicle id="ACC" pos="7.50" speed="3.00"/>
                <vehicle id="Manual" pos="35.90" speed="11.00"/>
            </lane>
        </edge>
    </timestep>
    <timestep time="6.60">
        <edge id="1to2">
            <lane id="1to2_0">
                <vehicle id="ACC" pos="7.82" speed="3.20"/>
                <vehicle id="Manual" pos="37.02" speed="11.20"/>
            </lane>
        </edge>
    </timestep>
    <timestep time="6.70">
        <edge id="1to2">
            <lane id="1to2_0">
                <vehicle id="ACC" pos="8.16" speed="3.40"/>
                <vehicle id="Manual" pos="38.16" speed="11.40"/>
            </lane>
        </edge>
    </timestep>
    <timestep time="6.80">
        <edge id="1to2">
            <lane id="1to2_0">
                <vehicle id="ACC" pos="8.52" speed="3.60"/>
                <vehicle id="Manual" pos="39.32" speed="11.60"/>
            </lane>
        </edge>
    </timestep>
    <timestep time="6.90">
        <edge id="1to2">
            <lane id="1to2_0">
                <vehicle id="ACC" pos="8.90" speed="3.80"/>
                <vehicle id="Manual" pos="40.50" speed="11.80"/>
            </lane>
        </edge>
    </timestep>
    <timestep time="7.00">
        <edge id="1to2">
            <lane id="1to2_0">
                <vehicle id="ACC" pos="9.30" speed="4.00"/>
                <vehicle id="Manual" pos="41.70" speed="12.00"/>
            </lane>
        </edge>
    </timestep>
    <timestep time="7.10">
        <edge id="1to2">
            <lane id="1to2_0">
                <vehicle id="ACC" pos="9.72" speed="4.20"/>
                <vehicle id="Manual" pos="42.92" speed="12.20"/>
            </lane>
        </edge>
    </timestep>
    <timestep time="7.20">
        <edge id="1to2">
            <lane id="1to2_0">
                <vehicle id="ACC" pos="10.16" speed="4.40"/>
                <vehicle id="Manual" pos="44.16" speed="12.40"/>
            </lane>
        </edge>
    </timestep>
    <timestep time="7.30">
        <edge id="1to2">
            <lane id="1to2_0">
                <vehicle id="ACC" pos="10.62" speed="4.60"/>
                <vehicle id="Manual" pos="45.42" speed="12.60"/>
            </lane>
        </edge>
    </timestep>
    <timestep time="7.40">
        <edge id="1to2">
            <lane id="1to2_0">
                <vehicle id="ACC" pos="11.10" speed="4.80"/>
                <vehicle id="Manual" pos="46.70" speed="12.80"/>
            </lane>
        </edge>
    </timestep>
    <timestep time="7.50">
        <edge id="1to2">
            <lane id="1to2_0">
                <vehicle id="ACC" pos="11.60" speed="5.00"/>
                <vehicle id="Manual" pos="48.00" speed="13.00"/>
            </lane>
        </edge>
    </timestep>
    <timestep time="7.60">
        <edge id="1to2">
            <lane id="1to2_0">
                <vehicle id="ACC" pos="12.12" speed="5.20"/>
                <vehicle id="Manual" pos="49.32" speed="13.20"/>
            </lane>
        </edge>
    </timestep>
    <timestep time="7.70">
        <edge id="1to2">
            <lane id="1to2_0">
                <vehicle id="ACC" pos="12.66" speed="5.40"/>
                <vehicle id="Manual" pos="50.66" speed="13.40"/>
            </lane>
        </edge>
    </timestep>
    <timestep time="7.80">
        <edge id="1to2">
            <lane id="1to2_0">
                <vehicle id="ACC" pos="13.22" speed="5.60"/>
                <vehicle id="Manual" pos="52.02" speed="13.60"/>
            </lane>
        </edge>
    </timestep>
    <timestep time="7.90">
        <edge id="1to2">
            <lane id="1to2_0">
                <vehicle id="ACC" pos="13.80" speed="5.80"/>
                <vehicle id="Manual" pos="53.40" speed="13.80"/>
            </lane>
        </edge>
    </timestep>
    <timestep time="8.00">
        <edge id="1to2">
            <lane id="1to2_0">
                <vehicle id="ACC" pos="14.40" speed="6.00"/>
                <vehicle id="Manual" pos="54.80" speed="14.00"/>
            </lane>
        </edge>
    </timestep>
    <timestep time="8.10">
        <edge id="1to2">
            <lane id="1to2_0">
                <vehicle id="ACC" pos="15.02" speed="6.20"/>
                <vehicle id="Manual" pos="56.22" speed="14.20"/>
            </lane>
        </edge>
    </timestep>
    <timestep time="8.20">
        <edge id="1to2">
            <lane id="1to2_0">
                <vehicle id="ACC" pos="15.66" speed="6.40"/>
                <vehicle id="Manual" pos="57.66" speed="14.40"/>
            </lane>
        </edge>
    </timestep>
    <timestep time="8.30">
        <edge id="1to2">
            <lane id="1to2_0">
                <vehicle id="ACC" pos="16.32" speed="6.60"/>
                <vehicle id="Manual" pos="59.12" speed="14.60"/>
            </lane>
        </edge>
    </timestep>
    <timestep time="8.40">
        <edge id="1to2">
            <lane id="1to2_0">
                <vehicle id="ACC" pos="17.00" speed="6.80"/>
                <vehicle id="Manual" pos="60.60" speed="14.80"/>
            </lane>
        </edge>
    </timestep>
    <timestep time="8.50">
        <edge id="1to2">
            <lane id="1to2_0">
                <vehicle id="ACC" pos="17.70" speed="7.00"/>
                <vehicle id="Manual" pos="62.10" speed="15.00"/>
            </lane>
        </edge>
    </timestep>
    <timestep time="8.60">
        <edge id="1to2">
            <lane id="1to2_0">
                <vehicle id="ACC" pos="18.42" speed="7.20"/>
                <vehicle id="Manual" pos="63.62" speed="15.20"/>
            </lane>
        </edge>
    </timestep>
    <timestep time="8.70">
        <edge id="1to2">
            <lane id="1to2_0">
                <vehicle id="ACC" pos="19.16" speed="7.40"/>
                <vehicle id="Manual" pos="65.16" speed="15.40"/>
            </lane>
        </edge>
    </timestep>
    <timestep time="8.80">
        <edge id="1to2">
            <lane id="1to2_0">
                <vehicle id="ACC" pos="19.92" speed="7.60"/>
                <vehicle id="Manual" pos="66.72" speed="15.60"/>
            </lane>
        </edge>
    </timestep>
    <timestep time="8.90">
        <edge id="1to2">
            <lane id="1to2_0">
                <vehicle id="ACC" pos="20.70" speed="7.80"/>
                <vehicle id="Manual" pos="68.30" speed="15.80"/>
            </lane>
        </edge>
    </timestep>
    <timestep time="9.00">
        <edge id="1to2">
            <lane id="1to2_0">
                <vehicle id="ACC" pos="21.50" speed="8.00"/>
                <vehicle id="Manual" pos="69.90" speed="16.00"/>
            </lane>
        </edge>
    </timestep>
    <timestep time="9.10">
        <edge id="1to2">
            <lane id="1to2_0">
                <vehicle id="ACC" pos="22.32" speed="8.20"/>
                <vehicle id="Manual" pos="71.52" speed="16.20"/>
            </lane>
        </edge>
    </timestep>
    <timestep time="9.20">
        <edge id="1to2">
            <lane id="1to2_0">
                <vehicle id="ACC" pos="23.16" speed="8.40"/>
                <vehicle id="Manual" pos="73.16" speed="16.40"/>
            </lane>
        </edge>
    </timestep>
    <timestep time="9.30">
        <edge id="1to2">
            <lane id="1to2_0">
                <vehicle id="ACC" pos="24.02" speed="8.60"/>
                <vehicle id="Manual" pos="74.82" speed="16.60"/>
            </lane>
        </edge>
    </timestep>
    <timestep time="9.40">
        <edge id="1to2">
            <lane id="1to2_0">
                <vehicle id="ACC" pos="24.90" speed="8.80"/>
                <vehicle id="Manual" pos="76.50" speed="16.80"/>
            </lane>
        </edge>
    </timestep>
    <timestep time="9.50">
        <edge id="1to2">
            <lane id="1to2_0">
                <vehicle id="ACC" pos="25.80" speed="9.00"/>
                <vehicle id="Manual" pos="78.20" speed="17.00"/>
            </lane>
        </edge>
    </timestep>
    <timestep time="9.60">
        <edge id="1to2">
            <lane id="1to2_0">
                <vehicle id="ACC" pos="26.72" speed="9.20"/>
                <vehicle id="Manual" pos="79.92" speed="17.20"/>
            </lane>
        </edge>
    </timestep>
    <timestep time="9.70">
        <edge id="1to2">
            <lane id="1to2_0">
                <vehicle id="ACC" pos="27.66" speed="9.40"/>
                <vehicle id="Manual" pos="81.66" speed="17.40"/>
            </lane>
        </edge>
    </timestep>
    <timestep time="9.80">
        <edge id="1to2">
            <lane id="1to2_0">
                <vehicle id="ACC" pos="28.62" speed="9.60"/>
                <vehicle id="Manual" pos="83.42" speed="17.60"/>
            </lane>
        </edge>
    </timestep>
    <timestep time="9.90">
        <edge id="1to2">
            <lane id="1to2_0">
                <vehicle id="ACC" pos="29.60" speed="9.80"/>
                <vehicle id="Manual" pos="85.20" speed="17.80"/>
            </lane>
        </edge>
    </timestep>
    <timestep time="10.00">
        <edge id="1to2">
            <lane id="1to2_0">
                <vehicle id="CACC" pos="5.10" speed="0.00"/>
                <vehicle id="ACC" pos="30.60" speed="10.00"/>
                <vehicle id="Manual" pos="87.00" speed="18.00"/>
            </lane>
        </edge>
    </timestep>
    <timestep time="10.10">
        <edge id="1to2">
            <lane id="1to2_0">
                <vehicle id="CACC" pos="5.12" speed="0.20"/>
                <vehicle id="ACC" pos="31.62" speed="10.20"/>
                <vehicle id="Manual" pos="88.82" speed="18.20"/>
            </lane>
        </edge>
    </timestep>
    <timestep time="10.20">
        <edge id="1to2">
            <lane id="1to2_0">
                <vehicle id="CACC" pos="5.16" speed="0.40"/>
                <vehicle id="ACC" pos="32.66" speed="10.40"/>
                <vehicle id="Manual" pos="90.66" speed="18.40"/>
            </lane>
        </edge>
    </timestep>
    <timestep time="10.30">
        <edge id="1to2">
            <lane id="1to2_0">
                <vehicle id="CACC" pos="5.22" speed="0.60"/>
                <vehicle id="ACC" pos="33.72" speed="10.60"/>
                <vehicle id="Manual" pos="92.52" speed="18.60"/>
            </lane>
        </edge>
    </timestep>
    <timestep time="10.40">
        <edge id="1to2">
            <lane id="1to2_0">
                <vehicle id="CACC" pos="5.30" speed="0.80"/>
                <vehicle id="ACC" pos="34.80" speed="10.80"/>
                <vehicle id="Manual" pos="94.40" speed="18.80"/>
            </lane>
        </edge>
    </timestep>
    <timestep time="10.50">
        <edge id="1to2">
            <lane id="1to2_0">
                <vehicle id="CACC" pos="5.40" speed="1.00"/>
                <vehicle id="ACC" pos="35.90" speed="11.00"/>
                <vehicle id="Manual" pos="96.30" speed="19.00"/>
            </lane>
        </edge>
    </timestep>
    <timestep time="10.60">
        <edge id="1to2">
            <lane id="1to2_0">
                <vehicle id="CACC" pos="5.52" speed="1.20"/>
                <vehicle id="ACC" pos="37.02" speed="11.20"/>
                <vehicle id="Manual" pos="98.22" speed="19.20"/>
            </lane>
        </edge>
    </timestep>
    <timestep time="10.70">
        <edge id="1to2">
            <lane id="1to2_0">
                <vehicle id="CACC" pos="5.66" speed="1.40"/>
                <vehicle id="ACC" pos="38.16" speed="11.40"/>
                <vehicle id="Manual" pos="100.16" speed="19.40"/>
            </lane>
        </edge>
    </timestep>
    <timestep time="10.80">
        <edge id="1to2">
            <lane id="1to2_0">
                <vehicle id="CACC" pos="5.82" speed="1.60"/>
                <vehicle id="ACC" pos="39.32" speed="11.60"/>
                <vehicle id="Manual" pos="102.12" speed="19.60"/>
            </lane>
        </edge>
    </timestep>
    <timestep time="10.90">
        <edge id="1to2">
            <lane id="1to2_0">
                <vehicle id="CACC" pos="6.00" speed="1.80"/>
                <vehicle id="ACC" pos="40.50" speed="11.80"/>
                <vehicle id="Manual" pos="104.10" speed="19.80"/>
            </lane>
        </edge>
    </timestep>
    <timestep time="11.00">
        <edge id="1to2">
            <lane id="1to2_0">
                <vehicle id="CACC" pos="6.20" speed="2.00"/>
                <vehicle id="ACC" pos="41.70" speed="12.00"/>
                <vehicle id="Manual" pos="106.10" speed="20.00"/>
            </lane>
        </edge>
    </timestep>
    <timestep time="11.10">
        <edge id="1to2">
            <lane id="1to2_0">
                <vehicle id="CACC" pos="6.42" speed="2.20"/>
                <vehicle id="ACC" pos="42.92" speed="12.20"/>
                <vehicle id="Manual" pos="108.12" speed="20.20"/>
            </lane>
        </edge>
    </timestep>
    <timestep time="11.20">
        <edge id="1to2">
            <lane id="1to2_0">
                <vehicle id="CACC" pos="6.66" speed="2.40"/>
                <vehicle id="ACC" pos="44.16" speed="12.40"/>
                <vehicle id="Manual" pos="110.16" speed="20.40"/>
            </lane>
        </edge>
    </timestep>
    <timestep time="11.30">
        <edge id="1to2">
            <lane id="1to2_0">
                <vehicle id="CACC" pos="6.92" speed="2.60"/>
                <vehicle id="ACC" pos="45.42" speed="12.60"/>
                <vehicle id="Manual" pos="112.22" speed="20.60"/>
            </lane>
        </edge>
    </timestep>
    <timestep time="11.40">
        <edge id="1to2">
            <lane id="1to2_0">
                <vehicle id="CACC" pos="7.20" speed="2.80"/>
                <vehicle id="ACC" pos="46.70" speed="12.80"/>
                <vehicle id="Manual" pos="114.30" speed="20.80"/>
            </lane>
        </edge>
    </timestep>
    <timestep time="11.50">
        <edge id="1to2">
            <lane id="1to2_0">
                <vehicle id="CACC" pos="7.50" speed="3.00"/>
                <vehicle id="ACC" pos="48.00" speed="13.00"/>
                <vehicle id="Manual" pos="116.40" speed="21.00"/>
            </lane>
        </edge>
    </timestep>
    <timestep time="11.60">
        <edge id="1to2">
            <lane id="1to2_0">
                <vehicle id="CACC" pos="7.82" speed="3.20"/>
                <vehicle id="ACC" pos="49.32" speed="13.20"/>
                <vehicle id="Manual" pos="118.52" speed="21.20"/>
            </lane>
        </edge>
    </timestep>
    <timestep time="11.70">
        <edge id="1to2">
            <lane id="1to2_0">
                <vehicle id="CACC" pos="8.16" speed="3.40"/>
                <vehicle id="ACC" pos="50.66" speed="13.40"/>
                <vehicle id="Manual" pos="120.66" speed="21.40"/>
            </lane>
        </edge>
    </timestep>
    <timestep time="11.80">
        <edge id="1to2">
            <lane id="1to2_0">
                <vehicle id="CACC" pos="8.52" speed="3.60"/>
                <vehicle id="ACC" pos="52.02" speed="13.60"/>
                <vehicle id="Manual" pos="122.82" speed="21.60"/>
            </lane>
        </edge>
    </timestep>
    <timestep time="11.90">
        <edge id="1to2">
            <lane id="1to2_0">
                <vehicle id="CACC" pos="8.90" speed="3.80"/>
                <vehicle id="ACC" pos="53.40" speed="13.80"/>
                <vehicle id="Manual" pos="125.00" speed="21.80"/>
            </lane>
        </edge>
    </timestep>
    <timestep time="12.00">
        <edge id="1to2">
            <lane id="1to2_0">
                <vehicle id="CACC" pos="9.30" speed="4.00"/>
                <vehicle id="ACC" pos="54.80" speed="14.00"/>
                <vehicle id="Manual" pos="127.20" speed="22.00"/>
            </lane>
        </edge>
    </timestep>
    <timestep time="12.10">
        <edge id="1to2">
            <lane id="1to2_0">
                <vehicle id="CACC" pos="9.72" speed="4.20"/>
                <vehicle id="ACC" pos="56.22" speed="14.20"/>
                <vehicle id="Manual" pos="129.42" speed="22.20"/>
            </lane>
        </edge>
    </timestep>
    <timestep time="12.20">
        <edge id="1to2">
            <lane id="1to2_0">
                <vehicle id="CACC" pos="10.16" speed="4.40"/>
                <vehicle id="ACC" pos="57.66" speed="14.40"/>
                <vehicle id="Manual" pos="131.66" speed="22.40"/>
            </lane>
        </edge>
    </timestep>
    <timestep time="12.30">
        <edge id="1to2">
            <lane id="1to2_0">
                <vehicle id="CACC" pos="10.62" speed="4.60"/>
                <vehicle id="ACC" pos="59.12" speed="14.60"/>