<?xml version="1.0" encoding="UTF-8"?>

<!-- generated on Wed Jan 15 17:44:41 2014 by SUMO sumo Version dev-SVN-r15307
<?xml version="1.0" encoding="UTF-8"?>

<configuration xmlns:xsi="http://www.w3.org/2001/XMLSchema-instance" xsi:noNamespaceSchemaLocation="http://sumo-sim.org/xsd/sumoConfiguration.xsd">

    <input>
        <net-file value="hello.net.xml"/>
        <route-files value="hello.rou.xml"/>
    </input>

    <output>
        <netstate-dump value="/home/mani/Desktop/VENTOS/sumo/CACC-ACC-Manual/dump.txt"/>
        <save-state.prefix value="state"/>
    </output>

    <time>
        <begin value="0"/>
        <end value="-1"/>
        <step-length value="0.1"/>
    </time>

    <processing>
        <time-to-teleport value="0"/>
    </processing>

    <report>
        <verbose value="true"/>
    </report>

    <traci_server>
        <remote-port value="46804"/>
    </traci_server>

    <random_number>
        <random value="false"/>
        <seed value="0"/>
    </random_number>

</configuration>
-->

<netstate xmlns:xsi="http://www.w3.org/2001/XMLSchema-instance" xsi:noNamespaceSchemaLocation="http://sumo-sim.org/xsd/netstate_file.xsd">
    <timestep time="0.00"/>
    <timestep time="0.10"/>
    <timestep time="0.20"/>
    <timestep time="0.30"/>
    <timestep time="0.40"/>
    <timestep time="0.50"/>
    <timestep time="0.60"/>
    <timestep time="0.70"/>
    <timestep time="0.80"/>
    <timestep time="0.90"/>
    <timestep time="1.00">
        <edge id="1to2">
            <lane id="1to2_0">
                <vehicle id="CACC1" pos="5.10" speed="0.00"/>
            </lane>
        </edge>
    </timestep>
    <timestep time="1.10">
        <edge id="1to2">
            <lane id="1to2_0">
                <vehicle id="CACC1" pos="5.13" speed="0.30"/>
            </lane>
        </edge>
    </timestep>
    <timestep time="1.20">
        <edge id="1to2">
            <lane id="1to2_0">
                <vehicle id="CACC1" pos="5.19" speed="0.60"/>
            </lane>
        </edge>
    </timestep>
    <timestep time="1.30">
        <edge id="1to2">
            <lane id="1to2_0">
                <vehicle id="CACC1" pos="5.28" speed="0.90"/>
            </lane>
        </edge>
    </timestep>
    <timestep time="1.40">
        <edge id="1to2">
            <lane id="1to2_0">
                <vehicle id="CACC1" pos="5.40" speed="1.20"/>
            </lane>
        </edge>
    </timestep>
    <timestep time="1.50">
        <edge id="1to2">
            <lane id="1to2_0">
                <vehicle id="CACC1" pos="5.55" speed="1.50"/>
            </lane>
        </edge>
    </timestep>
    <timestep time="1.60">
        <edge id="1to2">
            <lane id="1to2_0">
                <vehicle id="CACC1" pos="5.73" speed="1.80"/>
            </lane>
        </edge>
    </timestep>
    <timestep time="1.70">
        <edge id="1to2">
            <lane id="1to2_0">
                <vehicle id="CACC1" pos="5.94" speed="2.10"/>
            </lane>
        </edge>
    </timestep>
    <timestep time="1.80">
        <edge id="1to2">
            <lane id="1to2_0">
                <vehicle id="CACC1" pos="6.18" speed="2.40"/>
            </lane>
        </edge>
    </timestep>
    <timestep time="1.90">
        <edge id="1to2">
            <lane id="1to2_0">
                <vehicle id="CACC1" pos="6.45" speed="2.70"/>
            </lane>
        </edge>
    </timestep>
    <timestep time="2.00">
        <edge id="1to2">
            <lane id="1to2_0">
                <vehicle id="CACC1" pos="6.75" speed="3.00"/>
            </lane>
        </edge>
    </timestep>
    <timestep time="2.10">
        <edge id="1to2">
            <lane id="1to2_0">
                <vehicle id="CACC1" pos="7.08" speed="3.30"/>
            </lane>
        </edge>
    </timestep>
    <timestep time="2.20">
        <edge id="1to2">
            <lane id="1to2_0">
                <vehicle id="CACC1" pos="7.44" speed="3.60"/>
            </lane>
        </edge>
    </timestep>
    <timestep time="2.30">
        <edge id="1to2">
            <lane id="1to2_0">
                <vehicle id="CACC1" pos="7.83" speed="3.90"/>
            </lane>
        </edge>
    </timestep>
    <timestep time="2.40">
        <edge id="1to2">
            <lane id="1to2_0">
                <vehicle id="CACC1" pos="8.25" speed="4.20"/>
            </lane>
        </edge>
    </timestep>
    <timestep time="2.50">
        <edge id="1to2">
            <lane id="1to2_0">
                <vehicle id="CACC1" pos="8.70" speed="4.50"/>
            </lane>
        </edge>
    </timestep>
    <timestep time="2.60">
        <edge id="1to2">
            <lane id="1to2_0">
                <vehicle id="CACC1" pos="9.18" speed="4.80"/>
            </lane>
        </edge>
    </timestep>
    <timestep time="2.70">
        <edge id="1to2">
            <lane id="1to2_0">
                <vehicle id="CACC1" pos="9.69" speed="5.10"/>
            </lane>
        </edge>
    </timestep>
    <timestep time="2.80">
        <edge id="1to2">
            <lane id="1to2_0">
                <vehicle id="CACC1" pos="10.23" speed="5.40"/>
            </lane>
        </edge>
    </timestep>
    <timestep time="2.90">
        <edge id="1to2">
            <lane id="1to2_0">
                <vehicle id="CACC1" pos="10.80" speed="5.70"/>
            </lane>
        </edge>
    </timestep>
    <timestep time="3.00">
        <edge id="1to2">
            <lane id="1to2_0">
                <vehicle id="CACC1" pos="11.40" speed="6.00"/>
            </lane>
        </edge>
    </timestep>
    <timestep time="3.10">
        <edge id="1to2">
            <lane id="1to2_0">
                <vehicle id="CACC1" pos="12.03" speed="6.30"/>
            </lane>
        </edge>
    </timestep>
    <timestep time="3.20">
        <edge id="1to2">
            <lane id="1to2_0">
                <vehicle id="CACC1" pos="12.69" speed="6.60"/>
            </lane>
        </edge>
    </timestep>
    <timestep time="3.30">
        <edge id="1to2">
            <lane id="1to2_0">
                <vehicle id="CACC1" pos="13.38" speed="6.90"/>
            </lane>
        </edge>
    </timestep>
    <timestep time="3.40">
        <edge id="1to2">
            <lane id="1to2_0">
                <vehicle id="CACC1" pos="14.10" speed="7.20"/>
            </lane>
        </edge>
    </timestep>
    <timestep time="3.50">
        <edge id="1to2">
            <lane id="1to2_0">
                <vehicle id="CACC1" pos="14.85" speed="7.50"/>
            </lane>
        </edge>
    </timestep>
    <timestep time="3.60">
        <edge id="1to2">
            <lane id="1to2_0">
                <vehicle id="CACC1" pos="15.63" speed="7.80"/>
            </lane>
        </edge>
    </timestep>
    <timestep time="3.70">
        <edge id="1to2">
            <lane id="1to2_0">
                <vehicle id="CACC1" pos="16.44" speed="8.10"/>
            </lane>
        </edge>
    </timestep>
    <timestep time="3.80">
        <edge id="1to2">
            <lane id="1to2_0">
                <vehicle id="CACC1" pos="17.28" speed="8.40"/>
            </lane>
        </edge>
    </timestep>
    <timestep time="3.90">
        <edge id="1to2">
            <lane id="1to2_0">
                <vehicle id="CACC1" pos="18.15" speed="8.70"/>
            </lane>
        </edge>
    </timestep>
    <timestep time="4.00">
        <edge id="1to2">
            <lane id="1to2_0">
                <vehicle id="CACC1" pos="19.05" speed="9.00"/>
            </lane>
        </edge>
    </timestep>
    <timestep time="4.10">
        <edge id="1to2">
            <lane id="1to2_0">
                <vehicle id="CACC1" pos="19.98" speed="9.30"/>
            </lane>
        </edge>
    </timestep>
    <timestep time="4.20">
        <edge id="1to2">
            <lane id="1to2_0">
                <vehicle id="CACC1" pos="20.94" speed="9.60"/>
            </lane>
        </edge>
    </timestep>
    <timestep time="4.30">
        <edge id="1to2">
            <lane id="1to2_0">
                <vehicle id="CACC1" pos="21.93" speed="9.90"/>
            </lane>
        </edge>
    </timestep>
    <timestep time="4.40">
        <edge id="1to2">
            <lane id="1to2_0">
                <vehicle id="CACC1" pos="22.95" speed="10.20"/>
            </lane>
        </edge>
    </timestep>
    <timestep time="4.50">
        <edge id="1to2">
            <lane id="1to2_0">
                <vehicle id="CACC1" pos="24.00" speed="10.50"/>
            </lane>
        </edge>
    </timestep>
    <timestep time="4.60">
        <edge id="1to2">
            <lane id="1to2_0">
                <vehicle id="CACC1" pos="25.08" speed="10.80"/>
            </lane>
        </edge>
    </timestep>
    <timestep time="4.70">
        <edge id="1to2">
            <lane id="1to2_0">
                <vehicle id="CACC1" pos="26.19" speed="11.10"/>
            </lane>
        </edge>
    </timestep>
    <timestep time="4.80">
        <edge id="1to2">
            <lane id="1to2_0">
                <vehicle id="CACC1" pos="27.33" speed="11.40"/>
            </lane>
        </edge>
    </timestep>
    <timestep time="4.90">
        <edge id="1to2">
            <lane id="1to2_0">
                <vehicle id="CACC1" pos="28.50" speed="11.70"/>
            </lane>
        </edge>
    </timestep>
    <timestep time="5.00">
        <edge id="1to2">
            <lane id="1to2_0">
                <vehicle id="CACC2" pos="5.10" speed="0.00"/>
                <vehicle id="CACC1" pos="29.70" speed="12.00"/>
            </lane>
        </edge>
    </timestep>
    <timestep time="5.10">
        <edge id="1to2">
            <lane id="1to2_0">
                <vehicle id="CACC2" pos="5.12" speed="0.20"/>
                <vehicle id="CACC1" pos="30.93" speed="12.30"/>
            </lane>
        </edge>
    </timestep>
    <timestep time="5.20">
        <edge id="1to2">
            <lane id="1to2_0">
                <vehicle id="CACC2" pos="5.16" speed="0.40"/>
                <vehicle id="CACC1" pos="32.19" speed="12.60"/>
            </lane>
        </edge>
    </timestep>
    <timestep time="5.30">
        <edge id="1to2">
            <lane id="1to2_0">
                <vehicle id="CACC2" pos="5.22" speed="0.60"/>
                <vehicle id="CACC1" pos="33.48" speed="12.90"/>
            </lane>
        </edge>
    </timestep>
    <timestep time="5.40">
        <edge id="1to2">
            <lane id="1to2_0">
                <vehicle id="CACC2" pos="5.30" speed="0.80"/>
                <vehicle id="CACC1" pos="34.80" speed="13.20"/>
            </lane>
        </edge>
    </timestep>
    <timestep time="5.50">
        <edge id="1to2">
            <lane id="1to2_0">
                <vehicle id="CACC2" pos="5.40" speed="1.00"/>
                <vehicle id="CACC1" pos="36.15" speed="13.50"/>
            </lane>
        </edge>
    </timestep>
    <timestep time="5.60">
        <edge id="1to2">
            <lane id="1to2_0">
                <vehicle id="CACC2" pos="5.52" speed="1.20"/>
                <vehicle id="CACC1" pos="37.53" speed="13.80"/>
            </lane>
        </edge>
    </timestep>
    <timestep time="5.70">
        <edge id="1to2">
            <lane id="1to2_0">
                <vehicle id="CACC2" pos="5.66" speed="1.40"/>
                <vehicle id="CACC1" pos="38.94" speed="14.10"/>
            </lane>
        </edge>
    </timestep>
    <timestep time="5.80">
        <edge id="1to2">
            <lane id="1to2_0">
                <vehicle id="CACC2" pos="5.82" speed="1.60"/>
                <vehicle id="CACC1" pos="40.38" speed="14.40"/>
            </lane>
        </edge>
    </timestep>
    <timestep time="5.90">
        <edge id="1to2">
            <lane id="1to2_0">
                <vehicle id="CACC2" pos="6.00" speed="1.80"/>
                <vehicle id="CACC1" pos="41.85" speed="14.70"/>
            </lane>
        </edge>
    </timestep>
    <timestep time="6.00">
        <edge id="1to2">
            <lane id="1to2_0">
                <vehicle id="CACC2" pos="6.20" speed="2.00"/>
                <vehicle id="CACC1" pos="43.35" speed="15.00"/>
            </lane>
        </edge>
    </timestep>
    <timestep time="6.10">
        <edge id="1to2">
            <lane id="1to2_0">
                <vehicle id="CACC2" pos="6.42" speed="2.20"/>
                <vehicle id="CACC1" pos="44.88" speed="15.30"/>
            </lane>
        </edge>
    </timestep>
    <timestep time="6.20">
        <edge id="1to2">
            <lane id="1to2_0">
                <vehicle id="CACC2" pos="6.66" speed="2.40"/>
                <vehicle id="CACC1" pos="46.44" speed="15.60"/>
            </lane>
        </edge>
    </timestep>
    <timestep time="6.30">
        <edge id="1to2">
            <lane id="1to2_0">
                <vehicle id="CACC2" pos="6.92" speed="2.60"/>
                <vehicle id="CACC1" pos="48.03" speed="15.90"/>
            </lane>
        </edge>
    </timestep>
    <timestep time="6.40">
        <edge id="1to2">
            <lane id="1to2_0">
                <vehicle id="CACC2" pos="7.20" speed="2.80"/>
                <vehicle id="CACC1" pos="49.65" speed="16.20"/>
            </lane>
        </edge>
    </timestep>
    <timestep time="6.50">
        <edge id="1to2">
            <lane id="1to2_0">
                <vehicle id="CACC2" pos="7.50" speed="3.00"/>
                <vehicle id="CACC1" pos="51.30" speed="16.50"/>
            </lane>
        </edge>
    </timestep>
    <timestep time="6.60">
        <edge id="1to2">
            <lane id="1to2_0">
                <vehicle id="CACC2" pos="7.82" speed="3.20"/>
                <vehicle id="CACC1" pos="52.98" speed="16.80"/>
            </lane>
        </edge>
    </timestep>
    <timestep time="6.70">
        <edge id="1to2">
            <lane id="1to2_0">
                <vehicle id="CACC2" pos="8.16" speed="3.40"/>
                <vehicle id="CACC1" pos="54.69" speed="17.10"/>
            </lane>
        </edge>
    </timestep>
    <timestep time="6.80">
        <edge id="1to2">
            <lane id="1to2_0">
                <vehicle id="CACC2" pos="8.52" speed="3.60"/>
                <vehicle id="CACC1" pos="56.43" speed="17.40"/>
            </lane>
        </edge>
    </timestep>
    <timestep time="6.90">
        <edge id="1to2">
            <lane id="1to2_0">
                <vehicle id="CACC2" pos="8.90" speed="3.80"/>
                <vehicle id="CACC1" pos="58.20" speed="17.70"/>
            </lane>
        </edge>
    </timestep>
    <timestep time="7.00">
        <edge id="1to2">
            <lane id="1to2_0">
                <vehicle id="CACC2" pos="9.30" speed="4.00"/>
                <vehicle id="CACC1" pos="60.00" speed="18.00"/>
            </lane>
        </edge>
    </timestep>
    <timestep time="7.10">
        <edge id="1to2">
            <lane id="1to2_0">
                <vehicle id="CACC2" pos="9.72" speed="4.20"/>
                <vehicle id="CACC1" pos="61.83" speed="18.30"/>
            </lane>
        </edge>
    </timestep>
    <timestep time="7.20">
        <edge id="1to2">
            <lane id="1to2_0">
                <vehicle id="CACC2" pos="10.16" speed="4.40"/>
                <vehicle id="CACC1" pos="63.69" speed="18.60"/>
            </lane>
        </edge>
    </timestep>
    <timestep time="7.30">
        <edge id="1to2">
            <lane id="1to2_0">
                <vehicle id="CACC2" pos="10.62" speed="4.60"/>
                <vehicle id="CACC1" pos="65.58" speed="18.90"/>
            </lane>
        </edge>
    </timestep>
    <timestep time="7.40">
        <edge id="1to2">
            <lane id="1to2_0">
                <vehicle id="CACC2" pos="11.10" speed="4.80"/>
                <vehicle id="CACC1" pos="67.50" speed="19.20"/>
            </lane>
        </edge>
    </timestep>
    <timestep time="7.50">
        <edge id="1to2">
            <lane id="1to2_0">
                <vehicle id="CACC2" pos="11.60" speed="5.00"/>
                <vehicle id="CACC1" pos="69.45" speed="19.50"/>
            </lane>
        </edge>
    </timestep>
    <timestep time="7.60">
        <edge id="1to2">
            <lane id="1to2_0">
                <vehicle id="CACC3" pos="5.10" speed="0.00"/>
                <vehicle id="CACC2" pos="12.12" speed="5.20"/>
                <vehicle id="CACC1" pos="71.43" speed="19.80"/>
            </lane>
        </edge>
    </timestep>
    <timestep time="7.70">
        <edge id="1to2">
            <lane id="1to2_0">
                <vehicle id="CACC3" pos="5.10" speed="0.00"/>
                <vehicle id="CACC2" pos="12.66" speed="5.40"/>
                <vehicle id="CACC1" pos="73.44" speed="20.10"/>
            </lane>
        </edge>
    </timestep>
    <timestep time="7.80">
        <edge id="1to2">
            <lane id="1to2_0">
                <vehicle id="CACC3" pos="5.10" speed="0.02"/>
                <vehicle id="CACC2" pos="13.22" speed="5.60"/>
                <vehicle id="CACC1" pos="75.48" speed="20.40"/>
            </lane>
        </edge>
    </timestep>
    <timestep time="7.90">
        <edge id="1to2">
            <lane id="1to2_0">
                <vehicle id="CACC3" pos="5.11" speed="0.11"/>
                <vehicle id="CACC2" pos="13.80" speed="5.80"/>
                <vehicle id="CACC1" pos="77.55" speed="20.70"/>
            </lane>
        </edge>
    </timestep>
    <timestep time="8.00">
        <edge id="1to2">
            <lane id="1to2_0">
                <vehicle id="CACC3" pos="5.14" speed="0.31"/>
                <vehicle id="CACC2" pos="14.40" speed="6.00"/>
                <vehicle id="CACC1" pos="79.65" speed="21.00"/>
            </lane>
        </edge>
    </timestep>
    <timestep time="8.10">
        <edge id="1to2">
            <lane id="1to2_0">
                <vehicle id="CACC3" pos="5.20" speed="0.51"/>
                <vehicle id="CACC2" pos="15.02" speed="6.20"/>
                <vehicle id="CACC1" pos="81.78" speed="21.30"/>
            </lane>
        </edge>
    </timestep>
    <timestep time="8.20">
        <edge id="1to2">
            <lane id="1to2_0">
                <vehicle id="CACC3" pos="5.27" speed="0.71"/>
                <vehicle id="CACC2" pos="15.66" speed="6.40"/>
                <vehicle id="CACC1" pos="83.94" speed="21.60"/>
            </lane>
        </edge>
    </timestep>
    <timestep time="8.30">
        <edge id="1to2">
            <lane id="1to2_0">
                <vehicle id="CACC3" pos="5.36" speed="0.91"/>
                <vehicle id="CACC2" pos="16.32" speed="6.60"/>
                <vehicle id="CACC1" pos="86.13" speed="21.90"/>
            </lane>
        </edge>
    </timestep>
    <timestep time="8.40">
        <edge id="1to2">
            <lane id="1to2_0">
                <vehicle id="CACC3" pos="5.47" speed="1.11"/>
                <vehicle id="CACC2" pos="17.00" speed="6.80"/>
                <vehicle id="CACC1" pos="88.35" speed="22.20"/>
            </lane>
        </edge>
    </timestep>
    <timestep time="8.50">
        <edge id="1to2">
            <lane id="1to2_0">
                <vehicle id="CACC3" pos="5.60" speed="1.31"/>
                <vehicle id="CACC2" pos="17.70" speed="7.00"/>
                <vehicle id="CACC1" pos="90.60" speed="22.50"/>
            </lane>
        </edge>
    </timestep>
    <timestep time="8.60">
        <edge id="1to2">
            <lane id="1to2_0">
                <vehicle id="CACC3" pos="5.75" speed="1.51"/>
                <vehicle id="CACC2" pos="18.42" speed="7.20"/>
                <vehicle id="CACC1" pos="92.88" speed="22.80"/>
            </lane>
        </edge>
    </timestep>
    <timestep time="8.70">
        <edge id="1to2">
            <lane id="1to2_0">
                <vehicle id="CACC3" pos="5.92" speed="1.71"/>
                <vehicle id="CACC2" pos="19.16" speed="7.40"/>
                <vehicle id="CACC1" pos="95.19" speed="23.10"/>
            </lane>
        </edge>
    </timestep>
    <timestep time="8.80">
        <edge id="1to2">
            <lane id="1to2_0">
                <vehicle id="CACC3" pos="6.12" speed="1.91"/>
                <vehicle id="CACC2" pos="19.92" speed="7.60"/>
                <vehicle id="CACC1" pos="97.53" speed="23.40"/>
            </lane>
        </edge>
    </timestep>
    <timestep time="8.90">
        <edge id="1to2">
            <lane id="1to2_0">
                <vehicle id="CACC3" pos="6.33" speed="2.11"/>
                <vehicle id="CACC2" pos="20.70" speed="7.80"/>
                <vehicle id="CACC1" pos="99.90" speed="23.70"/>
            </lane>
        </edge>
    </timestep>
    <timestep time="9.00">
        <edge id="1to2">
            <lane id="1to2_0">
                <vehicle id="CACC3" pos="6.56" speed="2.31"/>
                <vehicle id="CACC2" pos="21.50" speed="8.00"/>
                <vehicle id="CACC1" pos="102.30" speed="24.00"/>
            </lane>
        </edge>
    </timestep>
    <timestep time="9.10">
        <edge id="1to2">
            <lane id="1to2_0">
                <vehicle id="CACC3" pos="6.81" speed="2.51"/>
                <vehicle id="CACC2" pos="22.32" speed="8.20"/>
                <vehicle id="CACC1" pos="104.65" speed="23.50"/>
            </lane>
        </edge>
    </timestep>
    <timestep time="9.20">
        <edge id="1to2">
            <lane id="1to2_0">
                <vehicle id="CACC3" pos="7.08" speed="2.71"/>
                <vehicle id="CACC2" pos="23.16" speed="8.40"/>
                <vehicle id="CACC1" pos="106.95" speed="23.00"/>
            </lane>
        </edge>
    </timestep>
    <timestep time="9.30">
        <edge id="1to2">
            <lane id="1to2_0">
                <vehicle id="CACC3" pos="7.37" speed="2.91"/>
                <vehicle id="CACC2" pos="24.02" speed="8.60"/>
                <vehicle id="CACC1" pos="109.20" speed="22.50"/>
            </lane>
        </edge>
    </timestep>
    <timestep time="9.40">
        <edge id="1to2">
            <lane id="1to2_0">
                <vehicle id="CACC3" pos="7.68" speed="3.11"/>
                <vehicle id="CACC2" pos="24.90" speed="8.80"/>
                <vehicle id="CACC1" pos="111.40" speed="22.00"/>
            </lane>
        </edge>
    </timestep>
    <timestep time="9.50">
        <edge id="1to2">
            <lane id="1to2_0">
                <vehicle id="CACC3" pos="8.02" speed="3.31"/>
                <vehicle id="CACC2" pos="25.80" speed="9.00"/>
                <vehicle id="CACC1" pos="113.55" speed="21.50"/>
            </lane>
        </edge>
    </timestep>
    <timestep time="9.60">
        <edge id="1to2">
            <lane id="1to2_0">
                <vehicle id="CACC3" pos="8.37" speed="3.51"/>
                <vehicle id="CACC2" pos="26.72" speed="9.20"/>
                <vehicle id="CACC1" pos="115.65" speed="21.00"/>
            </lane>
        </edge>
    </timestep>
    <timestep time="9.70">
        <edge id="1to2">
            <lane id="1to2_0">
                <vehicle id="CACC3" pos="8.74" speed="3.71"/>
                <vehicle id="CACC2" pos="27.66" speed="9.40"/>
                <vehicle id="CACC1" pos="117.70" speed="20.50"/>
            </lane>
        </edge>
    </timestep>
    <timestep time="9.80">
        <edge id="1to2">
            <lane id="1to2_0">
                <vehicle id="CACC3" pos="9.13" speed="3.91"/>
                <vehicle id="CACC2" pos="28.62" speed="9.60"/>
                <vehicle id="CACC1" pos="119.70" speed="20.00"/>
            </lane>
        </edge>
    </timestep>
</netstate>
