<?xml version="1.0" encoding="UTF-8"?>

<!-- generated on Sun 24 Nov 2013 05:01:09 PM PST by SUMO gui Version dev-SVN-r15200
<?xml version="1.0" encoding="UTF-8"?>

<configuration xmlns:xsi="http://www.w3.org/2001/XMLSchema-instance" xsi:noNamespaceSchemaLocation="http://sumo-sim.org/xsd/sumo-gui.exeConfiguration.xsd">

    <input>
        <net-file value="hello.net.xml"/>
        <route-files value="hello.rou.xml"/>
    </input>

    <output>
        <netstate-dump value="/home/mani/Desktop/C3PO/sumo/CACC-ACC-Manual/dump.txt"/>
        <save-state.prefix value="state"/>
    </output>

    <time>
        <begin value="0"/>
        <end value="-1"/>
        <step-length value="0.1"/>
    </time>

    <processing>
        <time-to-teleport value="0"/>
    </processing>

    <report>
        <verbose value="true"/>
    </report>

    <traci_server>
        <remote-port value="56610"/>
    </traci_server>

    <random_number>
        <random value="false"/>
        <seed value="0"/>
    </random_number>

</configuration>
-->

<netstate xmlns:xsi="http://www.w3.org/2001/XMLSchema-instance" xsi:noNamespaceSchemaLocation="http://sumo-sim.org/xsd/netstate_file.xsd">
    <timestep time="0.00"/>
    <timestep time="0.10"/>
    <timestep time="0.20"/>
    <timestep time="0.30"/>
    <timestep time="0.40"/>
    <timestep time="0.50"/>
    <timestep time="0.60"/>
    <timestep time="0.70"/>
    <timestep time="0.80"/>
    <timestep time="0.90"/>
    <timestep time="1.00">
        <edge id="1to2">
            <lane id="1to2_0">
                <vehicle id="CACC1" pos="5.10" speed="0.00"/>
            </lane>
        </edge>
    </timestep>
    <timestep time="1.10">
        <edge id="1to2">
            <lane id="1to2_0">
                <vehicle id="CACC1" pos="5.11" speed="0.15"/>
            </lane>
        </edge>
    </timestep>
    <timestep time="1.20">
        <edge id="1to2">
            <lane id="1to2_0">
                <vehicle id="CACC1" pos="5.14" speed="0.30"/>
            </lane>
        </edge>
    </timestep>
    <timestep time="1.30">
        <edge id="1to2">
            <lane id="1to2_0">
                <vehicle id="CACC1" pos="5.19" speed="0.45"/>
            </lane>
        </edge>
    </timestep>
    <timestep time="1.40">
        <edge id="1to2">
            <lane id="1to2_0">
                <vehicle id="CACC1" pos="5.25" speed="0.60"/>
            </lane>
        </edge>
    </timestep>
    <timestep time="1.50">
        <edge id="1to2">
            <lane id="1to2_0">
                <vehicle id="CACC1" pos="5.32" speed="0.75"/>
            </lane>
        </edge>
    </timestep>
    <timestep time="1.60">
        <edge id="1to2">
            <lane id="1to2_0">
                <vehicle id="CACC1" pos="5.41" speed="0.90"/>
            </lane>
        </edge>
    </timestep>
    <timestep time="1.70">
        <edge id="1to2">
            <lane id="1to2_0">
                <vehicle id="CACC1" pos="5.52" speed="1.05"/>
            </lane>
        </edge>
    </timestep>
    <timestep time="1.80">
        <edge id="1to2">
            <lane id="1to2_0">
                <vehicle id="CACC1" pos="5.64" speed="1.20"/>
            </lane>
        </edge>
    </timestep>
    <timestep time="1.90">
        <edge id="1to2">
            <lane id="1to2_0">
                <vehicle id="CACC1" pos="5.77" speed="1.35"/>
            </lane>
        </edge>
    </timestep>
    <timestep time="2.00">
        <edge id="1to2">
            <lane id="1to2_0">
                <vehicle id="CACC1" pos="5.92" speed="1.50"/>
            </lane>
        </edge>
    </timestep>
    <timestep time="2.10">
        <edge id="1to2">
            <lane id="1to2_0">
                <vehicle id="CACC1" pos="6.09" speed="1.65"/>
            </lane>
        </edge>
    </timestep>
    <timestep time="2.20">
        <edge id="1to2">
            <lane id="1to2_0">
                <vehicle id="CACC1" pos="6.27" speed="1.80"/>
            </lane>
        </edge>
    </timestep>
    <timestep time="2.30">
        <edge id="1to2">
            <lane id="1to2_0">
                <vehicle id="CACC1" pos="6.46" speed="1.95"/>
            </lane>
        </edge>
    </timestep>
    <timestep time="2.40">
        <edge id="1to2">
            <lane id="1to2_0">
                <vehicle id="CACC1" pos="6.67" speed="2.10"/>
            </lane>
        </edge>
    </timestep>
    <timestep time="2.50">
        <edge id="1to2">
            <lane id="1to2_0">
                <vehicle id="CACC1" pos="6.90" speed="2.25"/>
            </lane>
        </edge>
    </timestep>
    <timestep time="2.60">
        <edge id="1to2">
            <lane id="1to2_0">
                <vehicle id="CACC1" pos="7.14" speed="2.40"/>
            </lane>
        </edge>
    </timestep>
    <timestep time="2.70">
        <edge id="1to2">
            <lane id="1to2_0">
                <vehicle id="CACC1" pos="7.39" speed="2.55"/>
            </lane>
        </edge>
    </timestep>
    <timestep time="2.80">
        <edge id="1to2">
            <lane id="1to2_0">
                <vehicle id="CACC1" pos="7.66" speed="2.70"/>
            </lane>
        </edge>
    </timestep>
    <timestep time="2.90">
        <edge id="1to2">
            <lane id="1to2_0">
                <vehicle id="CACC1" pos="7.95" speed="2.85"/>
            </lane>
        </edge>
    </timestep>
    <timestep time="3.00">
        <edge id="1to2">
            <lane id="1to2_0">
                <vehicle id="CACC1" pos="8.25" speed="3.00"/>
            </lane>
        </edge>
    </timestep>
    <timestep time="3.10">
        <edge id="1to2">
            <lane id="1to2_0">
                <vehicle id="CACC1" pos="8.56" speed="3.15"/>
            </lane>
        </edge>
    </timestep>
    <timestep time="3.20">
        <edge id="1to2">
            <lane id="1to2_0">
                <vehicle id="CACC1" pos="8.89" speed="3.30"/>
            </lane>
        </edge>
    </timestep>
    <timestep time="3.30">
        <edge id="1to2">
            <lane id="1to2_0">
                <vehicle id="CACC1" pos="9.24" speed="3.45"/>
            </lane>
        </edge>
    </timestep>
    <timestep time="3.40">
        <edge id="1to2">
            <lane id="1to2_0">
                <vehicle id="CACC1" pos="9.60" speed="3.60"/>
            </lane>
        </edge>
    </timestep>
    <timestep time="3.50">
        <edge id="1to2">
            <lane id="1to2_0">
                <vehicle id="CACC1" pos="9.97" speed="3.75"/>
            </lane>
        </edge>
    </timestep>
    <timestep time="3.60">
        <edge id="1to2">
            <lane id="1to2_0">
                <vehicle id="CACC1" pos="10.37" speed="3.90"/>
            </lane>
        </edge>
    </timestep>
    <timestep time="3.70">
        <edge id="1to2">
            <lane id="1to2_0">
                <vehicle id="CACC1" pos="10.77" speed="4.05"/>
            </lane>
        </edge>
    </timestep>
    <timestep time="3.80">
        <edge id="1to2">
            <lane id="1to2_0">
                <vehicle id="CACC1" pos="11.19" speed="4.20"/>
            </lane>
        </edge>
    </timestep>
    <timestep time="3.90">
        <edge id="1to2">
            <lane id="1to2_0">
                <vehicle id="CACC1" pos="11.62" speed="4.35"/>
            </lane>
        </edge>
    </timestep>
    <timestep time="4.00">
        <edge id="1to2">
            <lane id="1to2_0">
                <vehicle id="CACC1" pos="12.07" speed="4.50"/>
            </lane>
        </edge>
    </timestep>
    <timestep time="4.10">
        <edge id="1to2">
            <lane id="1to2_0">
                <vehicle id="CACC1" pos="12.54" speed="4.65"/>
            </lane>
        </edge>
    </timestep>
    <timestep time="4.20">
        <edge id="1to2">
            <lane id="1to2_0">
                <vehicle id="CACC1" pos="13.02" speed="4.80"/>
            </lane>
        </edge>
    </timestep>
    <timestep time="4.30">
        <edge id="1to2">
            <lane id="1to2_0">
                <vehicle id="CACC1" pos="13.52" speed="4.95"/>
            </lane>
        </edge>
    </timestep>
    <timestep time="4.40">
        <edge id="1to2">
            <lane id="1to2_0">
                <vehicle id="CACC1" pos="14.03" speed="5.10"/>
            </lane>
        </edge>
    </timestep>
    <timestep time="4.50">
        <edge id="1to2">
            <lane id="1to2_0">
                <vehicle id="CACC1" pos="14.55" speed="5.25"/>
            </lane>
        </edge>
    </timestep>
    <timestep time="4.60">
        <edge id="1to2">
            <lane id="1to2_0">
                <vehicle id="CACC1" pos="15.09" speed="5.40"/>
            </lane>
        </edge>
    </timestep>
    <timestep time="4.70">
        <edge id="1to2">
            <lane id="1to2_0">
                <vehicle id="CACC1" pos="15.65" speed="5.55"/>
            </lane>
        </edge>
    </timestep>
    <timestep time="4.80">
        <edge id="1to2">
            <lane id="1to2_0">
                <vehicle id="CACC1" pos="16.22" speed="5.70"/>
            </lane>
        </edge>
    </timestep>
    <timestep time="4.90">
        <edge id="1to2">
            <lane id="1to2_0">
                <vehicle id="CACC1" pos="16.80" speed="5.85"/>
            </lane>
        </edge>
    </timestep>
    <timestep time="5.00">
        <edge id="1to2">
            <lane id="1to2_0">
                <vehicle id="CACC2" pos="5.10" speed="0.00"/>
                <vehicle id="CACC1" pos="17.40" speed="6.00"/>
            </lane>
        </edge>
    </timestep>
    <timestep time="5.10">
        <edge id="1to2">
            <lane id="1to2_0">
                <vehicle id="CACC2" pos="5.12" speed="0.20"/>
                <vehicle id="CACC1" pos="18.02" speed="6.15"/>
            </lane>
        </edge>
    </timestep>
    <timestep time="5.20">
        <edge id="1to2">
            <lane id="1to2_0">
                <vehicle id="CACC2" pos="5.16" speed="0.40"/>
                <vehicle id="CACC1" pos="18.65" speed="6.30"/>
            </lane>
        </edge>
    </timestep>
    <timestep time="5.30">
        <edge id="1to2">
            <lane id="1to2_0">
                <vehicle id="CACC2" pos="5.22" speed="0.60"/>
                <vehicle id="CACC1" pos="19.29" speed="6.45"/>
            </lane>
        </edge>
    </timestep>
    <timestep time="5.40">
        <edge id="1to2">
            <lane id="1to2_0">
                <vehicle id="CACC2" pos="5.30" speed="0.80"/>
                <vehicle id="CACC1" pos="19.95" speed="6.60"/>
            </lane>
        </edge>
    </timestep>
    <timestep time="5.50">
        <edge id="1to2">
            <lane id="1to2_0">
                <vehicle id="CACC2" pos="5.40" speed="1.00"/>
                <vehicle id="CACC1" pos="20.63" speed="6.75"/>
            </lane>
        </edge>
    </timestep>
    <timestep time="5.60">
        <edge id="1to2">
            <lane id="1to2_0">
                <vehicle id="CACC2" pos="5.52" speed="1.20"/>
                <vehicle id="CACC1" pos="21.32" speed="6.90"/>
            </lane>
        </edge>
    </timestep>
    <timestep time="5.70">
        <edge id="1to2">
            <lane id="1to2_0">
                <vehicle id="CACC2" pos="5.66" speed="1.40"/>
                <vehicle id="CACC1" pos="22.02" speed="7.05"/>
            </lane>
        </edge>
    </timestep>
    <timestep time="5.80">
        <edge id="1to2">
            <lane id="1to2_0">
                <vehicle id="CACC2" pos="5.82" speed="1.60"/>
                <vehicle id="CACC1" pos="22.74" speed="7.20"/>
            </lane>
        </edge>
    </timestep>
    <timestep time="5.90">
        <edge id="1to2">
            <lane id="1to2_0">
                <vehicle id="CACC2" pos="6.00" speed="1.80"/>
                <vehicle id="CACC1" pos="23.48" speed="7.35"/>
            </lane>
        </edge>
    </timestep>
    <timestep time="6.00">
        <edge id="1to2">
            <lane id="1to2_0">
                <vehicle id="CACC2" pos="6.20" speed="2.00"/>
                <vehicle id="CACC1" pos="24.23" speed="7.50"/>
            </lane>
        </edge>
    </timestep>
    <timestep time="6.10">
        <edge id="1to2">
            <lane id="1to2_0">
                <vehicle id="CACC2" pos="6.42" speed="2.20"/>
                <vehicle id="CACC1" pos="24.99" speed="7.65"/>
            </lane>
        </edge>
    </timestep>
    <timestep time="6.20">
        <edge id="1to2">
            <lane id="1to2_0">
                <vehicle id="CACC2" pos="6.66" speed="2.40"/>
                <vehicle id="CACC1" pos="25.77" speed="7.80"/>
            </lane>
        </edge>
    </timestep>
    <timestep time="6.30">
        <edge id="1to2">
            <lane id="1to2_0">
                <vehicle id="CACC2" pos="6.92" speed="2.60"/>
                <vehicle id="CACC1" pos="26.57" speed="7.95"/>
            </lane>
        </edge>
    </timestep>
    <timestep time="6.40">
        <edge id="1to2">
            <lane id="1to2_0">
                <vehicle id="CACC2" pos="7.20" speed="2.80"/>
                <vehicle id="CACC1" pos="27.38" speed="8.10"/>
            </lane>
        </edge>
    </timestep>
    <timestep time="6.50">
        <edge id="1to2">
            <lane id="1to2_0">
                <vehicle id="CACC2" pos="7.50" speed="3.00"/>
                <vehicle id="CACC1" pos="28.20" speed="8.25"/>
            </lane>
        </edge>
    </timestep>
    <timestep time="6.60">
        <edge id="1to2">
            <lane id="1to2_0">
                <vehicle id="CACC2" pos="7.82" speed="3.20"/>
                <vehicle id="CACC1" pos="29.04" speed="8.40"/>
            </lane>
        </edge>
    </timestep>
    <timestep time="6.70">
        <edge id="1to2">
            <lane id="1to2_0">
                <vehicle id="CACC2" pos="8.16" speed="3.40"/>
                <vehicle id="CACC1" pos="29.90" speed="8.55"/>
            </lane>
        </edge>
    </timestep>
    <timestep time="6.80">
        <edge id="1to2">
            <lane id="1to2_0">
                <vehicle id="CACC2" pos="8.52" speed="3.60"/>
                <vehicle id="CACC1" pos="30.77" speed="8.70"/>
            </lane>
        </edge>
    </timestep>
    <timestep time="6.90">
        <edge id="1to2">
            <lane id="1to2_0">
                <vehicle id="CACC2" pos="8.90" speed="3.80"/>
                <vehicle id="CACC1" pos="31.65" speed="8.85"/>
            </lane>
        </edge>
    </timestep>
    <timestep time="7.00">
        <edge id="1to2">
            <lane id="1to2_0">
                <vehicle id="CACC2" pos="9.30" speed="4.00"/>
                <vehicle id="CACC1" pos="32.55" speed="9.00"/>
            </lane>
        </edge>
    </timestep>
    <timestep time="7.10">
        <edge id="1to2">
            <lane id="1to2_0">
                <vehicle id="CACC2" pos="9.72" speed="4.20"/>
                <vehicle id="CACC1" pos="33.47" speed="9.15"/>
            </lane>
        </edge>
    </timestep>
    <timestep time="7.20">
        <edge id="1to2">
            <lane id="1to2_0">
                <vehicle id="CACC2" pos="10.16" speed="4.40"/>
                <vehicle id="CACC1" pos="34.40" speed="9.30"/>
            </lane>
        </edge>
    </timestep>
    <timestep time="7.30">
        <edge id="1to2">
            <lane id="1to2_0">
                <vehicle id="CACC2" pos="10.62" speed="4.60"/>
                <vehicle id="CACC1" pos="35.34" speed="9.45"/>
            </lane>
        </edge>
    </timestep>
    <timestep time="7.40">
        <edge id="1to2">
            <lane id="1to2_0">
                <vehicle id="CACC2" pos="11.10" speed="4.80"/>
                <vehicle id="CACC1" pos="36.30" speed="9.60"/>
            </lane>
        </edge>
    </timestep>
    <timestep time="7.50">
        <edge id="1to2">
            <lane id="1to2_0">
                <vehicle id="CACC2" pos="11.60" speed="5.00"/>
                <vehicle id="CACC1" pos="37.28" speed="9.75"/>
            </lane>
        </edge>
    </timestep>
    <timestep time="7.60">
        <edge id="1to2">
            <lane id="1to2_0">
                <vehicle id="CACC3" pos="5.10" speed="0.00"/>
                <vehicle id="CACC2" pos="12.12" speed="5.20"/>
                <vehicle id="CACC1" pos="38.27" speed="9.90"/>
            </lane>
        </edge>
    </timestep>
    <timestep time="7.70">
        <edge id="1to2">
            <lane id="1to2_0">
                <vehicle id="CACC3" pos="5.10" speed="0.01"/>
                <vehicle id="CACC2" pos="12.66" speed="5.40"/>
                <vehicle id="CACC1" pos="39.27" speed="10.05"/>
            </lane>
        </edge>
    </timestep>
    <timestep time="7.80">
        <edge id="1to2">
            <lane id="1to2_0">
                <vehicle id="CACC3" pos="5.11" speed="0.06"/>
                <vehicle id="CACC2" pos="13.22" speed="5.60"/>
                <vehicle id="CACC1" pos="40.29" speed="10.20"/>
            </lane>
        </edge>
    </timestep>
    <timestep time="7.90">
        <edge id="1to2">
            <lane id="1to2_0">
                <vehicle id="CACC3" pos="5.12" speed="0.17"/>
                <vehicle id="CACC2" pos="13.80" speed="5.80"/>
                <vehicle id="CACC1" pos="41.33" speed="10.35"/>
            </lane>
        </edge>
    </timestep>
    <timestep time="8.00">
        <edge id="1to2">
            <lane id="1to2_0">
                <vehicle id="CACC3" pos="5.16" speed="0.34"/>
                <vehicle id="CACC2" pos="14.40" speed="6.00"/>
                <vehicle id="CACC1" pos="42.38" speed="10.50"/>
            </lane>
        </edge>
    </timestep>
    <timestep time="8.10">
        <edge id="1to2">
            <lane id="1to2_0">
                <vehicle id="CACC3" pos="5.21" speed="0.54"/>
                <vehicle id="CACC2" pos="15.02" speed="6.20"/>
                <vehicle id="CACC1" pos="43.44" speed="10.65"/>
            </lane>
        </edge>
    </timestep>
    <timestep time="8.20">
        <edge id="1to2">
            <lane id="1to2_0">
                <vehicle id="CACC3" pos="5.29" speed="0.74"/>
                <vehicle id="CACC2" pos="15.66" speed="6.40"/>
                <vehicle id="CACC1" pos="44.52" speed="10.80"/>
            </lane>
        </edge>
    </timestep>
    <timestep time="8.30">
        <edge id="1to2">
            <lane id="1to2_0">
                <vehicle id="CACC3" pos="5.38" speed="0.94"/>
                <vehicle id="CACC2" pos="16.32" speed="6.60"/>
                <vehicle id="CACC1" pos="45.62" speed="10.95"/>
            </lane>
        </edge>
    </timestep>
    <timestep time="8.40">
        <edge id="1to2">
            <lane id="1to2_0">
                <vehicle id="CACC3" pos="5.50" speed="1.14"/>
                <vehicle id="CACC2" pos="17.00" speed="6.80"/>
                <vehicle id="CACC1" pos="46.73" speed="11.10"/>
            </lane>
        </edge>
    </timestep>
    <timestep time="8.50">
        <edge id="1to2">
            <lane id="1to2_0">
                <vehicle id="CACC3" pos="5.63" speed="1.34"/>
                <vehicle id="CACC2" pos="17.70" speed="7.00"/>
                <vehicle id="CACC1" pos="47.85" speed="11.25"/>
            </lane>
        </edge>
    </timestep>
    <timestep time="8.60">
        <edge id="1to2">
            <lane id="1to2_0">
                <vehicle id="CACC3" pos="5.78" speed="1.54"/>
                <vehicle id="CACC2" pos="18.42" speed="7.20"/>
                <vehicle id="CACC1" pos="48.99" speed="11.40"/>
            </lane>
        </edge>
    </timestep>
    <timestep time="8.70">
        <edge id="1to2">
            <lane id="1to2_0">
                <vehicle id="CACC3" pos="5.96" speed="1.74"/>
                <vehicle id="CACC2" pos="19.16" speed="7.40"/>
                <vehicle id="CACC1" pos="50.15" speed="11.55"/>
            </lane>
        </edge>
    </timestep>
    <timestep time="8.80">
        <edge id="1to2">
            <lane id="1to2_0">
                <vehicle id="CACC3" pos="6.15" speed="1.94"/>
                <vehicle id="CACC2" pos="19.92" speed="7.60"/>
                <vehicle id="CACC1" pos="51.32" speed="11.70"/>
            </lane>
        </edge>
    </timestep>
    <timestep time="8.90">
        <edge id="1to2">
            <lane id="1to2_0">
                <vehicle id="CACC3" pos="6.37" speed="2.14"/>
                <vehicle id="CACC2" pos="20.70" speed="7.80"/>
                <vehicle id="CACC1" pos="52.50" speed="11.85"/>
            </lane>
        </edge>
    </timestep>
    <timestep time="9.00">
        <edge id="1to2">
            <lane id="1to2_0">
                <vehicle id="CACC3" pos="6.60" speed="2.34"/>
                <vehicle id="CACC2" pos="21.50" speed="8.00"/>
                <vehicle id="CACC1" pos="53.70" speed="12.00"/>
            </lane>
        </edge>
    </timestep>
    <timestep time="9.10">
        <edge id="1to2">
            <lane id="1to2_0">
                <vehicle id="CACC3" pos="6.86" speed="2.54"/>
                <vehicle id="CACC2" pos="22.32" speed="8.20"/>
                <vehicle id="CACC1" pos="54.92" speed="12.15"/>
            </lane>
        </edge>
    </timestep>
    <timestep time="9.20">
        <edge id="1to2">
            <lane id="1to2_0">
                <vehicle id="CACC3" pos="7.13" speed="2.74"/>
                <vehicle id="CACC2" pos="23.16" speed="8.40"/>
                <vehicle id="CACC1" pos="56.15" speed="12.30"/>
            </lane>
        </edge>
    </timestep>
    <timestep time="9.30">
        <edge id="1to2">
            <lane id="1to2_0">
                <vehicle id="CACC3" pos="7.42" speed="2.94"/>
                <vehicle id="CACC2" pos="24.02" speed="8.60"/>
                <vehicle id="CACC1" pos="57.39" speed="12.45"/>
            </lane>
        </edge>
    </timestep>
    <timestep time="9.40">
        <edge id="1to2">
            <lane id="1to2_0">
                <vehicle id="CACC3" pos="7.74" speed="3.14"/>
                <vehicle id="CACC2" pos="24.90" speed="8.80"/>
                <vehicle id="CACC1" pos="58.65" speed="12.60"/>
            </lane>
        </edge>
    </timestep>
    <timestep time="9.50">
        <edge id="1to2">
            <lane id="1to2_0">
                <vehicle id="CACC3" pos="8.07" speed="3.34"/>
                <vehicle id="CACC2" pos="25.80" speed="9.00"/>
                <vehicle id="CACC1" pos="59.93" speed="12.75"/>
            </lane>
        </edge>
    </timestep>
    <timestep time="9.60">
        <edge id="1to2">
            <lane id="1to2_0">
                <vehicle id="CACC3" pos="8.43" speed="3.54"/>
                <vehicle id="CACC2" pos="26.72" speed="9.20"/>
                <vehicle id="CACC1" pos="61.22" speed="12.90"/>
            </lane>
        </edge>
    </timestep>
    <timestep time="9.70">
        <edge id="1to2">
            <lane id="1to2_0">
                <vehicle id="CACC3" pos="8.80" speed="3.74"/>
                <vehicle id="CACC2" pos="27.66" speed="9.40"/>
                <vehicle id="CACC1" pos="62.52" speed="13.05"/>
            </lane>
        </edge>
    </timestep>
    <timestep time="9.80">
        <edge id="1to2">
            <lane id="1to2_0">
                <vehicle id="CACC3" pos="9.19" speed="3.94"/>
                <vehicle id="CACC2" pos="28.62" speed="9.60"/>
                <vehicle id="CACC1" pos="63.84" speed="13.20"/>
            </lane>
        </edge>
    </timestep>
    <timestep time="9.90">
        <edge id="1to2">
            <lane id="1to2_0">
                <vehicle id="CACC3" pos="9.61" speed="4.14"/>
                <vehicle id="CACC2" pos="29.60" speed="9.80"/>
                <vehicle id="CACC1" pos="65.18" speed="13.35"/>
            </lane>
        </edge>
    </timestep>
    <timestep time="10.00">
        <edge id="1to2">
            <lane id="1to2_0">
                <vehicle id="CACC3" pos="10.04" speed="4.34"/>
                <vehicle id="CACC2" pos="30.60" speed="10.00"/>
                <vehicle id="CACC1" pos="66.53" speed="13.50"/>
            </lane>
        </edge>
    </timestep>
    <timestep time="10.10">
        <edge id="1to2">
            <lane id="1to2_0">
                <vehicle id="CACC3" pos="10.50" speed="4.54"/>
                <vehicle id="CACC2" pos="31.62" speed="10.20"/>
                <vehicle id="CACC1" pos="67.89" speed="13.65"/>
            </lane>
        </edge>
    </timestep>
    <timestep time="10.20">
        <edge id="1to2">
            <lane id="1to2_0">
                <vehicle id="CACC3" pos="10.97" speed="4.74"/>
                <vehicle id="CACC2" pos="32.66" speed="10.40"/>
                <vehicle id="CACC1" pos="69.27" speed="13.80"/>
            </lane>
        </edge>
    </timestep>
    <timestep time="10.30">
        <edge id="1to2">
            <lane id="1to2_0">
                <vehicle id="CACC3" pos="11.47" speed="4.94"/>
                <vehicle id="CACC2" pos="33.72" speed="10.60"/>
                <vehicle id="CACC1" pos="70.67" speed="13.95"/>
            </lane>
        </edge>
    </timestep>
    <timestep time="10.40">
        <edge id="1to2">
            <lane id="1to2_0">
                <vehicle id="CACC3" pos="11.98" speed="5.14"/>
                <vehicle id="CACC2" pos="34.80" speed="10.80"/>
                <vehicle id="CACC1" pos="72.08" speed="14.10"/>
            </lane>
        </edge>
    </timestep>
    <timestep time="10.50">
        <edge id="1to2">
            <lane id="1to2_0">
                <vehicle id="CACC4" pos="5.10" speed="0.00"/>
                <vehicle id="CACC3" pos="12.51" speed="5.34"/>
                <vehicle id="CACC2" pos="35.90" speed="11.00"/>
                <vehicle id="CACC1" pos="73.50" speed="14.25"/>
            </lane>
        </edge>
    </timestep>
    <timestep time="10.60">
        <edge id="1to2">
            <lane id="1to2_0">
                <vehicle id="CACC4" pos="5.10" speed="0.03"/>
                <vehicle id="CACC3" pos="13.07" speed="5.54"/>
                <vehicle id="CACC2" pos="37.02" speed="11.20"/>
                <vehicle id="CACC1" pos="74.94" speed="14.40"/>
            </lane>
        </edge>
    </timestep>
    <timestep time="10.70">
        <edge id="1to2">
            <lane id="1to2_0">
                <vehicle id="CACC4" pos="5.12" speed="0.12"/>
                <vehicle id="CACC3" pos="13.64" speed="5.74"/>
                <vehicle id="CACC2" pos="38.16" speed="11.40"/>
                <vehicle id="CACC1" pos="76.40" speed="14.55"/>
            </lane>
        </edge>
    </timestep>
    <timestep time="10.80">
        <edge id="1to2">
            <lane id="1to2_0">
                <vehicle id="CACC4" pos="5.14" speed="0.27"/>
                <vehicle id="CACC3" pos="14.24" speed="5.94"/>
                <vehicle id="CACC2" pos="39.32" speed="11.60"/>
                <vehicle id="CACC1" pos="77.87" speed="14.70"/>
            </lane>
        </edge>
    </timestep>
    <timestep time="10.90">
        <edge id="1to2">
            <lane id="1to2_0">
                <vehicle id="CACC4" pos="5.19" speed="0.47"/>
                <vehicle id="CACC3" pos="14.85" speed="6.14"/>
                <vehicle id="CACC2" pos="40.50" speed="11.80"/>
                <vehicle id="CACC1" pos="79.35" speed="14.85"/>
            </lane>
        </edge>
    </timestep>
    <timestep time="11.00">
        <edge id="1to2">
            <lane id="1to2_0">
                <vehicle id="CACC4" pos="5.26" speed="0.67"/>
                <vehicle id="CACC3" pos="15.49" speed="6.34"/>
                <vehicle id="CACC2" pos="41.70" speed="12.00"/>
                <vehicle id="CACC1" pos="80.85" speed="15.00"/>
            </lane>
        </edge>
    </timestep>
    <timestep time="11.10">
        <edge id="1to2">
            <lane id="1to2_0">
                <vehicle id="CACC4" pos="5.35" speed="0.87"/>
                <vehicle id="CACC3" pos="16.14" speed="6.54"/>
                <vehicle id="CACC2" pos="42.92" speed="12.20"/>
                <vehicle id="CACC1" pos="82.37" speed="15.15"/>
            </lane>
        </edge>
    </timestep>
    <timestep time="11.20">
        <edge id="1to2">
            <lane id="1to2_0">
                <vehicle id="CACC4" pos="5.45" speed="1.07"/>
                <vehicle id="CACC3" pos="16.81" speed="6.74"/>
                <vehicle id="CACC2" pos="44.16" speed="12.40"/>
                <vehicle id="CACC1" pos="83.90" speed="15.30"/>
            </lane>
        </edge>
    </timestep>
    <timestep time="11.30">
        <edge id="1to2">
            <lane id="1to2_0">
                <vehicle id="CACC4" pos="5.58" speed="1.27"/>
                <vehicle id="CACC3" pos="17.51" speed="6.94"/>
                <vehicle id="CACC2" pos="45.42" speed="12.60"/>
                <vehicle id="CACC1" pos="85.44" speed="15.45"/>
            </lane>
        </edge>
    </timestep>
    <timestep time="11.40">
        <edge id="1to2">
            <lane id="1to2_0">
                <vehicle id="CACC4" pos="5.73" speed="1.47"/>
                <vehicle id="CACC3" pos="18.22" speed="7.14"/>
                <vehicle id="CACC2" pos="46.70" speed="12.80"/>
                <vehicle id="CACC1" pos="87.00" speed="15.60"/>
            </lane>
        </edge>
    </timestep>
    <timestep time="11.50">
        <edge id="1to2">
            <lane id="1to2_0">
                <vehicle id="CACC4" pos="5.90" speed="1.67"/>
                <vehicle id="CACC3" pos="18.96" speed="7.34"/>
                <vehicle id="CACC2" pos="48.00" speed="13.00"/>
                <vehicle id="CACC1" pos="88.58" speed="15.75"/>
            </lane>
        </edge>
    </timestep>
    <timestep time="11.60">
        <edge id="1to2">
            <lane id="1to2_0">
                <vehicle id="CACC4" pos="6.08" speed="1.87"/>