<?xml version="1.0" encoding="UTF-8"?>

<!-- generated on Mon Nov 18 04:33:41 2013 by SUMO sumo Version dev-SVN-r14930
<?xml version="1.0" encoding="UTF-8"?>

<configuration xmlns:xsi="http://www.w3.org/2001/XMLSchema-instance" xsi:noNamespaceSchemaLocation="http://sumo-sim.org/xsd/sumoConfiguration.xsd">

    <input>
        <net-file value="hello.net.xml"/>
        <route-files value="hello.rou.xml"/>
    </input>

    <output>
        <netstate-dump value="/home/mani/Desktop/C3PO/sumo/CACC-ACC-Manual/dump.txt"/>
        <save-state.prefix value="state"/>
    </output>

    <time>
        <begin value="0"/>
        <end value="-1"/>
        <step-length value="0.1"/>
    </time>

    <processing>
        <time-to-teleport value="0"/>
    </processing>

    <report>
        <verbose value="true"/>
    </report>

    <traci_server>
        <remote-port value="38603"/>
    </traci_server>

    <random_number>
        <random value="false"/>
        <seed value="0"/>
    </random_number>

</configuration>
-->

<netstate xmlns:xsi="http://www.w3.org/2001/XMLSchema-instance" xsi:noNamespaceSchemaLocation="http://sumo-sim.org/xsd/netstate_file.xsd">
    <timestep time="0.00"/>
    <timestep time="0.10"/>
    <timestep time="0.20"/>
    <timestep time="0.30"/>
    <timestep time="0.40"/>
    <timestep time="0.50"/>
    <timestep time="0.60"/>
    <timestep time="0.70"/>
    <timestep time="0.80"/>
    <timestep time="0.90"/>
    <timestep time="1.00">
        <edge id="1to2">
            <lane id="1to2_0">
                <vehicle id="CACC1" pos="5.10" speed="0.00"/>
            </lane>
        </edge>
    </timestep>
    <timestep time="1.10">
        <edge id="1to2">
            <lane id="1to2_0">
                <vehicle id="CACC1" pos="5.13" speed="0.30"/>
            </lane>
        </edge>
    </timestep>
    <timestep time="1.20">
        <edge id="1to2">
            <lane id="1to2_0">
                <vehicle id="CACC1" pos="5.19" speed="0.60"/>
            </lane>
        </edge>
    </timestep>
    <timestep time="1.30">
        <edge id="1to2">
            <lane id="1to2_0">
                <vehicle id="CACC1" pos="5.28" speed="0.90"/>
            </lane>
        </edge>
    </timestep>
    <timestep time="1.40">
        <edge id="1to2">
            <lane id="1to2_0">
                <vehicle id="CACC1" pos="5.40" speed="1.20"/>
            </lane>
        </edge>
    </timestep>
    <timestep time="1.50">
        <edge id="1to2">
            <lane id="1to2_0">
                <vehicle id="CACC1" pos="5.55" speed="1.50"/>
            </lane>
        </edge>
    </timestep>
    <timestep time="1.60">
        <edge id="1to2">
            <lane id="1to2_0">
                <vehicle id="CACC1" pos="5.73" speed="1.80"/>
            </lane>
        </edge>
    </timestep>
    <timestep time="1.70">
        <edge id="1to2">
            <lane id="1to2_0">
                <vehicle id="CACC1" pos="5.94" speed="2.10"/>
            </lane>
        </edge>
    </timestep>
    <timestep time="1.80">
        <edge id="1to2">
            <lane id="1to2_0">
                <vehicle id="CACC1" pos="6.18" speed="2.40"/>
            </lane>
        </edge>
    </timestep>
    <timestep time="1.90">
        <edge id="1to2">
            <lane id="1to2_0">
                <vehicle id="CACC1" pos="6.45" speed="2.70"/>
            </lane>
        </edge>
    </timestep>
    <timestep time="2.00">
        <edge id="1to2">
            <lane id="1to2_0">
                <vehicle id="CACC1" pos="6.75" speed="3.00"/>
            </lane>
        </edge>
    </timestep>
    <timestep time="2.10">
        <edge id="1to2">
            <lane id="1to2_0">
                <vehicle id="CACC1" pos="7.08" speed="3.30"/>
            </lane>
        </edge>
    </timestep>
    <timestep time="2.20">
        <edge id="1to2">
            <lane id="1to2_0">
                <vehicle id="CACC1" pos="7.44" speed="3.60"/>
            </lane>
        </edge>
    </timestep>
    <timestep time="2.30">
        <edge id="1to2">
            <lane id="1to2_0">
                <vehicle id="CACC1" pos="7.83" speed="3.90"/>
            </lane>
        </edge>
    </timestep>
    <timestep time="2.40">
        <edge id="1to2">
            <lane id="1to2_0">
                <vehicle id="CACC1" pos="8.25" speed="4.20"/>
            </lane>
        </edge>
    </timestep>
    <timestep time="2.50">
        <edge id="1to2">
            <lane id="1to2_0">
                <vehicle id="CACC1" pos="8.70" speed="4.50"/>
            </lane>
        </edge>
    </timestep>
    <timestep time="2.60">
        <edge id="1to2">
            <lane id="1to2_0">
                <vehicle id="CACC1" pos="9.18" speed="4.80"/>
            </lane>
        </edge>
    </timestep>
    <timestep time="2.70">
        <edge id="1to2">
            <lane id="1to2_0">
                <vehicle id="CACC1" pos="9.69" speed="5.10"/>
            </lane>
        </edge>
    </timestep>
    <timestep time="2.80">
        <edge id="1to2">
            <lane id="1to2_0">
                <vehicle id="CACC1" pos="10.23" speed="5.40"/>
            </lane>
        </edge>
    </timestep>
    <timestep time="2.90">
        <edge id="1to2">
            <lane id="1to2_0">
                <vehicle id="CACC1" pos="10.80" speed="5.70"/>
            </lane>
        </edge>
    </timestep>
    <timestep time="3.00">
        <edge id="1to2">
            <lane id="1to2_0">
                <vehicle id="CACC1" pos="11.40" speed="6.00"/>
            </lane>
        </edge>
    </timestep>
    <timestep time="3.10">
        <edge id="1to2">
            <lane id="1to2_0">
                <vehicle id="CACC1" pos="12.03" speed="6.30"/>
            </lane>
        </edge>
    </timestep>
    <timestep time="3.20">
        <edge id="1to2">
            <lane id="1to2_0">
                <vehicle id="CACC2" pos="5.10" speed="0.00"/>
                <vehicle id="CACC1" pos="12.69" speed="6.60"/>
            </lane>
        </edge>
    </timestep>
    <timestep time="3.30">
        <edge id="1to2">
            <lane id="1to2_0">
                <vehicle id="CACC2" pos="5.11" speed="0.07"/>
                <vehicle id="CACC1" pos="13.38" speed="6.90"/>
            </lane>
        </edge>
    </timestep>
    <timestep time="3.40">
        <edge id="1to2">
            <lane id="1to2_0">
                <vehicle id="CACC2" pos="5.13" speed="0.26"/>
                <vehicle id="CACC1" pos="14.10" speed="7.20"/>
            </lane>
        </edge>
    </timestep>
    <timestep time="3.50">
        <edge id="1to2">
            <lane id="1to2_0">
                <vehicle id="CACC2" pos="5.18" speed="0.46"/>
                <vehicle id="CACC1" pos="14.85" speed="7.50"/>
            </lane>
        </edge>
    </timestep>
    <timestep time="3.60">
        <edge id="1to2">
            <lane id="1to2_0">
                <vehicle id="CACC2" pos="5.24" speed="0.66"/>
                <vehicle id="CACC1" pos="15.63" speed="7.80"/>
            </lane>
        </edge>
    </timestep>
    <timestep time="3.70">
        <edge id="1to2">
            <lane id="1to2_0">
                <vehicle id="CACC2" pos="5.33" speed="0.86"/>
                <vehicle id="CACC1" pos="16.44" speed="8.10"/>
            </lane>
        </edge>
    </timestep>
    <timestep time="3.80">
        <edge id="1to2">
            <lane id="1to2_0">
                <vehicle id="CACC2" pos="5.44" speed="1.06"/>
                <vehicle id="CACC1" pos="17.28" speed="8.40"/>
            </lane>
        </edge>
    </timestep>
    <timestep time="3.90">
        <edge id="1to2">
            <lane id="1to2_0">
                <vehicle id="CACC2" pos="5.56" speed="1.26"/>
                <vehicle id="CACC1" pos="18.15" speed="8.70"/>
            </lane>
        </edge>
    </timestep>
    <timestep time="4.00">
        <edge id="1to2">
            <lane id="1to2_0">
                <vehicle id="CACC2" pos="5.71" speed="1.46"/>
                <vehicle id="CACC1" pos="19.05" speed="9.00"/>
            </lane>
        </edge>
    </timestep>
    <timestep time="4.10">
        <edge id="1to2">
            <lane id="1to2_0">
                <vehicle id="CACC2" pos="5.88" speed="1.66"/>
                <vehicle id="CACC1" pos="19.98" speed="9.30"/>
            </lane>
        </edge>
    </timestep>
    <timestep time="4.20">
        <edge id="1to2">
            <lane id="1to2_0">
                <vehicle id="CACC2" pos="6.06" speed="1.86"/>
                <vehicle id="CACC1" pos="20.94" speed="9.60"/>
            </lane>
        </edge>
    </timestep>
    <timestep time="4.30">
        <edge id="1to2">
            <lane id="1to2_0">
                <vehicle id="CACC2" pos="6.27" speed="2.06"/>
                <vehicle id="CACC1" pos="21.93" speed="9.90"/>
            </lane>
        </edge>
    </timestep>
    <timestep time="4.40">
        <edge id="1to2">
            <lane id="1to2_0">
                <vehicle id="CACC2" pos="6.49" speed="2.26"/>
                <vehicle id="CACC1" pos="22.95" speed="10.20"/>
            </lane>
        </edge>
    </timestep>
    <timestep time="4.50">
        <edge id="1to2">
            <lane id="1to2_0">
                <vehicle id="CACC2" pos="6.74" speed="2.46"/>
                <vehicle id="CACC1" pos="24.00" speed="10.50"/>
            </lane>
        </edge>
    </timestep>
    <timestep time="4.60">
        <edge id="1to2">
            <lane id="1to2_0">
                <vehicle id="CACC2" pos="7.01" speed="2.66"/>
                <vehicle id="CACC1" pos="25.08" speed="10.80"/>
            </lane>
        </edge>
    </timestep>
    <timestep time="4.70">
        <edge id="1to2">
            <lane id="1to2_0">
                <vehicle id="CACC2" pos="7.29" speed="2.86"/>
                <vehicle id="CACC1" pos="26.19" speed="11.10"/>
            </lane>
        </edge>
    </timestep>
    <timestep time="4.80">
        <edge id="1to2">
            <lane id="1to2_0">
                <vehicle id="CACC2" pos="7.60" speed="3.06"/>
                <vehicle id="CACC1" pos="27.33" speed="11.40"/>
            </lane>
        </edge>
    </timestep>
    <timestep time="4.90">
        <edge id="1to2">
            <lane id="1to2_0">
                <vehicle id="CACC2" pos="7.92" speed="3.26"/>
                <vehicle id="CACC1" pos="28.50" speed="11.70"/>
            </lane>
        </edge>
    </timestep>
    <timestep time="5.00">
        <edge id="1to2">
            <lane id="1to2_0">
                <vehicle id="CACC2" pos="8.27" speed="3.46"/>
                <vehicle id="CACC1" pos="29.70" speed="12.00"/>
            </lane>
        </edge>
    </timestep>
    <timestep time="5.10">
        <edge id="1to2">
            <lane id="1to2_0">
                <vehicle id="CACC2" pos="8.64" speed="3.66"/>
                <vehicle id="CACC1" pos="30.93" speed="12.30"/>
            </lane>
        </edge>
    </timestep>
    <timestep time="5.20">
        <edge id="1to2">
            <lane id="1to2_0">
                <vehicle id="CACC2" pos="9.02" speed="3.86"/>
                <vehicle id="CACC1" pos="32.19" speed="12.60"/>
            </lane>
        </edge>
    </timestep>
    <timestep time="5.30">
        <edge id="1to2">
            <lane id="1to2_0">
                <vehicle id="CACC2" pos="9.43" speed="4.06"/>
                <vehicle id="CACC1" pos="33.48" speed="12.90"/>
            </lane>
        </edge>
    </timestep>
    <timestep time="5.40">
        <edge id="1to2">
            <lane id="1to2_0">
                <vehicle id="CACC2" pos="9.85" speed="4.26"/>
                <vehicle id="CACC1" pos="34.80" speed="13.20"/>
            </lane>
        </edge>
    </timestep>
    <timestep time="5.50">
        <edge id="1to2">
            <lane id="1to2_0">
                <vehicle id="CACC2" pos="10.30" speed="4.46"/>
                <vehicle id="CACC1" pos="36.15" speed="13.50"/>
            </lane>
        </edge>
    </timestep>
    <timestep time="5.60">
        <edge id="1to2">
            <lane id="1to2_0">
                <vehicle id="CACC2" pos="10.77" speed="4.66"/>
                <vehicle id="CACC1" pos="37.53" speed="13.80"/>
            </lane>
        </edge>
    </timestep>
    <timestep time="5.70">
        <edge id="1to2">
            <lane id="1to2_0">
                <vehicle id="CACC2" pos="11.25" speed="4.86"/>
                <vehicle id="CACC1" pos="38.94" speed="14.10"/>
            </lane>
        </edge>
    </timestep>
    <timestep time="5.80">
        <edge id="1to2">
            <lane id="1to2_0">
                <vehicle id="CACC2" pos="11.76" speed="5.06"/>
                <vehicle id="CACC1" pos="40.38" speed="14.40"/>
            </lane>
        </edge>
    </timestep>
    <timestep time="5.90">
        <edge id="1to2">
            <lane id="1to2_0">
                <vehicle id="CACC3" pos="5.10" speed="0.00"/>
                <vehicle id="CACC2" pos="12.28" speed="5.26"/>
                <vehicle id="CACC1" pos="41.85" speed="14.70"/>
            </lane>
        </edge>
    </timestep>
    <timestep time="6.00">
        <edge id="1to2">
            <lane id="1to2_0">
                <vehicle id="CACC3" pos="5.10" speed="0.00"/>
                <vehicle id="CACC2" pos="12.83" speed="5.46"/>
                <vehicle id="CACC1" pos="43.35" speed="15.00"/>
            </lane>
        </edge>
    </timestep>
    <timestep time="6.10">
        <edge id="1to2">
            <lane id="1to2_0">
                <vehicle id="CACC3" pos="5.10" speed="0.04"/>
                <vehicle id="CACC2" pos="13.40" speed="5.66"/>
                <vehicle id="CACC1" pos="44.88" speed="15.30"/>
            </lane>
        </edge>
    </timestep>
    <timestep time="6.20">
        <edge id="1to2">
            <lane id="1to2_0">
                <vehicle id="CACC3" pos="5.12" speed="0.16"/>
                <vehicle id="CACC2" pos="13.98" speed="5.86"/>
                <vehicle id="CACC1" pos="46.44" speed="15.60"/>
            </lane>
        </edge>
    </timestep>
    <timestep time="6.30">
        <edge id="1to2">
            <lane id="1to2_0">
                <vehicle id="CACC3" pos="5.16" speed="0.36"/>
                <vehicle id="CACC2" pos="14.59" speed="6.06"/>
                <vehicle id="CACC1" pos="48.03" speed="15.90"/>
            </lane>
        </edge>
    </timestep>
    <timestep time="6.40">
        <edge id="1to2">
            <lane id="1to2_0">
                <vehicle id="CACC3" pos="5.21" speed="0.56"/>
                <vehicle id="CACC2" pos="15.21" speed="6.26"/>
                <vehicle id="CACC1" pos="49.65" speed="16.20"/>
            </lane>
        </edge>
    </timestep>
    <timestep time="6.50">
        <edge id="1to2">
            <lane id="1to2_0">
                <vehicle id="CACC3" pos="5.29" speed="0.76"/>
                <vehicle id="CACC2" pos="15.86" speed="6.46"/>
                <vehicle id="CACC1" pos="51.30" speed="16.50"/>
            </lane>
        </edge>
    </timestep>
    <timestep time="6.60">
        <edge id="1to2">
            <lane id="1to2_0">
                <vehicle id="CACC3" pos="5.39" speed="0.96"/>
                <vehicle id="CACC2" pos="16.53" speed="6.66"/>
                <vehicle id="CACC1" pos="52.98" speed="16.80"/>
            </lane>
        </edge>
    </timestep>
    <timestep time="6.70">
        <edge id="1to2">
            <lane id="1to2_0">
                <vehicle id="CACC3" pos="5.50" speed="1.16"/>
                <vehicle id="CACC2" pos="17.21" speed="6.86"/>
                <vehicle id="CACC1" pos="54.69" speed="17.10"/>
            </lane>
        </edge>
    </timestep>
    <timestep time="6.80">
        <edge id="1to2">
            <lane id="1to2_0">
                <vehicle id="CACC3" pos="5.64" speed="1.36"/>
                <vehicle id="CACC2" pos="17.92" speed="7.06"/>
                <vehicle id="CACC1" pos="56.43" speed="17.40"/>
            </lane>
        </edge>
    </timestep>
    <timestep time="6.90">
        <edge id="1to2">
            <lane id="1to2_0">
                <vehicle id="CACC3" pos="5.80" speed="1.56"/>
                <vehicle id="CACC2" pos="18.64" speed="7.26"/>
                <vehicle id="CACC1" pos="58.20" speed="17.70"/>
            </lane>
        </edge>
    </timestep>
    <timestep time="7.00">
        <edge id="1to2">
            <lane id="1to2_0">
                <vehicle id="CACC3" pos="5.97" speed="1.76"/>
                <vehicle id="CACC2" pos="19.39" speed="7.46"/>
                <vehicle id="CACC1" pos="60.00" speed="18.00"/>
            </lane>
        </edge>
    </timestep>
    <timestep time="7.10">
        <edge id="1to2">
            <lane id="1to2_0">
                <vehicle id="CACC3" pos="6.17" speed="1.96"/>
                <vehicle id="CACC2" pos="20.16" speed="7.66"/>
                <vehicle id="CACC1" pos="61.83" speed="18.30"/>
            </lane>
        </edge>
    </timestep>
    <timestep time="7.20">
        <edge id="1to2">
            <lane id="1to2_0">
                <vehicle id="CACC3" pos="6.38" speed="2.16"/>
                <vehicle id="CACC2" pos="20.94" speed="7.86"/>
                <vehicle id="CACC1" pos="63.69" speed="18.60"/>
            </lane>
        </edge>
    </timestep>
    <timestep time="7.30">
        <edge id="1to2">
            <lane id="1to2_0">
                <vehicle id="CACC3" pos="6.62" speed="2.36"/>
                <vehicle id="CACC2" pos="21.75" speed="8.06"/>
                <vehicle id="CACC1" pos="65.58" speed="18.90"/>
            </lane>
        </edge>
    </timestep>
    <timestep time="7.40">
        <edge id="1to2">
            <lane id="1to2_0">
                <vehicle id="CACC3" pos="6.88" speed="2.56"/>
                <vehicle id="CACC2" pos="22.57" speed="8.26"/>
                <vehicle id="CACC1" pos="67.50" speed="19.20"/>
            </lane>
        </edge>
    </timestep>
    <timestep time="7.50">
        <edge id="1to2">
            <lane id="1to2_0">
                <vehicle id="CACC3" pos="7.15" speed="2.76"/>
                <vehicle id="CACC2" pos="23.42" speed="8.46"/>
                <vehicle id="CACC1" pos="69.45" speed="19.50"/>
            </lane>
        </edge>
    </timestep>
    <timestep time="7.60">
        <edge id="1to2">
            <lane id="1to2_0">
                <vehicle id="CACC3" pos="7.45" speed="2.96"/>
                <vehicle id="CACC2" pos="24.29" speed="8.66"/>
                <vehicle id="CACC1" pos="71.43" speed="19.80"/>
            </lane>
        </edge>
    </timestep>
    <timestep time="7.70">
        <edge id="1to2">
            <lane id="1to2_0">
                <vehicle id="CACC3" pos="7.77" speed="3.16"/>
                <vehicle id="CACC2" pos="25.17" speed="8.86"/>
                <vehicle id="CACC1" pos="73.44" speed="20.10"/>
            </lane>
        </edge>
    </timestep>
    <timestep time="7.80">
        <edge id="1to2">
            <lane id="1to2_0">
                <vehicle id="CACC3" pos="8.10" speed="3.36"/>
                <vehicle id="CACC2" pos="26.08" speed="9.06"/>
                <vehicle id="CACC1" pos="75.48" speed="20.40"/>
            </lane>
        </edge>
    </timestep>
    <timestep time="7.90">
        <edge id="1to2">
            <lane id="1to2_0">
                <vehicle id="CACC3" pos="8.46" speed="3.56"/>
                <vehicle id="CACC2" pos="27.00" speed="9.26"/>
                <vehicle id="CACC1" pos="77.55" speed="20.70"/>
            </lane>
        </edge>
    </timestep>
    <timestep time="8.00">
        <edge id="1to2">
            <lane id="1to2_0">
                <vehicle id="CACC3" pos="8.84" speed="3.76"/>
                <vehicle id="CACC2" pos="27.95" speed="9.46"/>
                <vehicle id="CACC1" pos="79.65" speed="21.00"/>
            </lane>
        </edge>
    </timestep>
    <timestep time="8.10">
        <edge id="1to2">
            <lane id="1to2_0">
                <vehicle id="CACC3" pos="9.23" speed="3.96"/>
                <vehicle id="CACC2" pos="28.92" speed="9.66"/>
                <vehicle id="CACC1" pos="81.78" speed="21.30"/>
            </lane>
        </edge>
    </timestep>
    <timestep time="8.20">
        <edge id="1to2">
            <lane id="1to2_0">
                <vehicle id="CACC3" pos="9.65" speed="4.16"/>
                <vehicle id="CACC2" pos="29.90" speed="9.86"/>
                <vehicle id="CACC1" pos="83.94" speed="21.60"/>
            </lane>
        </edge>
    </timestep>
    <timestep time="8.30">
        <edge id="1to2">
            <lane id="1to2_0">
                <vehicle id="CACC3" pos="10.09" speed="4.36"/>
                <vehicle id="CACC2" pos="30.91" speed="10.06"/>
                <vehicle id="CACC1" pos="86.13" speed="21.90"/>
            </lane>
        </edge>
    </timestep>
    <timestep time="8.40">
        <edge id="1to2">
            <lane id="1to2_0">
                <vehicle id="CACC3" pos="10.54" speed="4.56"/>
                <vehicle id="CACC2" pos="31.93" speed="10.26"/>
                <vehicle id="CACC1" pos="88.35" speed="22.20"/>
            </lane>
        </edge>
    </timestep>
    <timestep time="8.50">
        <edge id="1to2">
            <lane id="1to2_0">
                <vehicle id="CACC3" pos="11.02" speed="4.76"/>
                <vehicle id="CACC2" pos="32.98" speed="10.46"/>
                <vehicle id="CACC1" pos="90.60" speed="22.50"/>
            </lane>
        </edge>
    </timestep>
    <timestep time="8.60">
        <edge id="1to2">
            <lane id="1to2_0">
                <vehicle id="CACC3" pos="11.52" speed="4.96"/>
                <vehicle id="CACC2" pos="34.05" speed="10.66"/>
                <vehicle id="CACC1" pos="92.88" speed="22.80"/>
            </lane>
        </edge>
    </timestep>
    <timestep time="8.70">
        <edge id="1to2">
            <lane id="1to2_0">
                <vehicle id="CACC3" pos="12.03" speed="5.16"/>
                <vehicle id="CACC2" pos="35.13" speed="10.86"/>
                <vehicle id="CACC1" pos="95.19" speed="23.10"/>
            </lane>
        </edge>
    </timestep>
    <timestep time="8.80">
        <edge id="1to2">
            <lane id="1to2_0">
                <vehicle id="CACC4" pos="5.10" speed="0.00"/>
                <vehicle id="CACC3" pos="12.57" speed="5.36"/>
                <vehicle id="CACC2" pos="36.24" speed="11.06"/>
                <vehicle id="CACC1" pos="97.53" speed="23.40"/>
            </lane>
        </edge>
    </timestep>
    <timestep time="8.90">
        <edge id="1to2">
            <lane id="1to2_0">
                <vehicle id="CACC4" pos="5.10" speed="0.01"/>
                <vehicle id="CACC3" pos="13.12" speed="5.56"/>
                <vehicle id="CACC2" pos="37.36" speed="11.26"/>
                <vehicle id="CACC1" pos="99.90" speed="23.70"/>
            </lane>
        </edge>
    </timestep>
    <timestep time="9.00">
        <edge id="1to2">
            <lane id="1to2_0">
                <vehicle id="CACC4" pos="5.11" speed="0.09"/>
                <vehicle id="CACC3" pos="13.70" speed="5.76"/>
                <vehicle id="CACC2" pos="38.51" speed="11.46"/>
                <vehicle id="CACC1" pos="102.30" speed="24.00"/>
            </lane>
        </edge>
    </timestep>
    <timestep time="9.10">
        <edge id="1to2">
            <lane id="1to2_0">
                <vehicle id="CACC4" pos="5.14" speed="0.27"/>
                <vehicle id="CACC3" pos="14.30" speed="5.96"/>
                <vehicle id="CACC2" pos="39.68" speed="11.66"/>
                <vehicle id="CACC1" pos="104.65" speed="23.50"/>
            </lane>
        </edge>
    </timestep>
    <timestep time="9.20">
        <edge id="1to2">
            <lane id="1to2_0">
                <vehicle id="CACC4" pos="5.18" speed="0.47"/>
                <vehicle id="CACC3" pos="14.91" speed="6.16"/>
                <vehicle id="CACC2" pos="40.86" speed="11.86"/>
                <vehicle id="CACC1" pos="106.95" speed="23.00"/>
            </lane>
        </edge>
    </timestep>
    <timestep time="9.30">
        <edge id="1to2">
            <lane id="1to2_0">
                <vehicle id="CACC4" pos="5.25" speed="0.67"/>
                <vehicle id="CACC3" pos="15.55" speed="6.36"/>
                <vehicle id="CACC2" pos="42.07" speed="12.06"/>
                <vehicle id="CACC1" pos="109.20" speed="22.50"/>
            </lane>
        </edge>
    </timestep>
    <timestep time="9.40">
        <edge id="1to2">
            <lane id="1to2_0">
                <vehicle id="CACC4" pos="5.34" speed="0.87"/>
                <vehicle id="CACC3" pos="16.21" speed="6.56"/>
                <vehicle id="CACC2" pos="43.29" speed="12.26"/>
                <vehicle id="CACC1" pos="111.40" speed="22.00"/>
            </lane>
        </edge>
    </timestep>
    <timestep time="9.50">
        <edge id="1to2">
            <lane id="1to2_0">
                <vehicle id="CACC4" pos="5.44" speed="1.07"/>
                <vehicle id="CACC3" pos="16.88" speed="6.76"/>
                <vehicle id="CACC2" pos="44.54" speed="12.46"/>
                <vehicle id="CACC1" pos="113.55" speed="21.50"/>
            </lane>
        </edge>
    </timestep>
    <timestep time="9.60">
        <edge id="1to2">
            <lane id="1to2_0">
                <vehicle id="CACC4" pos="5.57" speed="1.27"/>
                <vehicle id="CACC3" pos="17.58" speed="6.96"/>
                <vehicle id="CACC2" pos="45.81" speed="12.66"/>
                <vehicle id="CACC1" pos="115.65" speed="21.00"/>
            </lane>
        </edge>
    </timestep>
    <timestep time="9.70">
        <edge id="1to2">
            <lane id="1to2_0">
                <vehicle id="CACC4" pos="5.72" speed="1.47"/>
                <vehicle id="CACC3" pos="18.30" speed="7.16"/>
                <vehicle id="CACC2" pos="47.09" speed="12.86"/>
                <vehicle id="CACC1" pos="117.70" speed="20.50"/>
            </lane>
        </edge>
    </timestep>
    <timestep time="9.80">
        <edge id="1to2">
            <lane id="1to2_0">
                <vehicle id="CACC4" pos="5.89" speed="1.67"/>
                <vehicle id="CACC3" pos="19.03" speed="7.36"/>
                <vehicle id="CACC2" pos="48.40" speed="13.06"/>
                <vehicle id="CACC1" pos="119.70" speed="20.00"/>
            </lane>
        </edge>
    </timestep>
    <timestep time="9.90">
        <edge id="1to2">
            <lane id="1to2_0">
                <vehicle id="CACC4" pos="6.07" speed="1.87"/>
                <vehicle id="CACC3" pos="19.79" speed="7.56"/>
                <vehicle id="CACC2" pos="49.72" speed="13.26"/>
                <vehicle id="CACC1" pos="121.65" speed="19.50"/>
            </lane>
        </edge>
    </timestep>
    <timestep time="10.00">
        <edge id="1to2">
            <lane id="1to2_0">
                <vehicle id="CACC4" pos="6.28" speed="2.07"/>
                <vehicle id="CACC3" pos="20.57" speed="7.76"/>
                <vehicle id="CACC2" pos="51.07" speed="13.46"/>
                <vehicle id="CACC1" pos="123.55" speed="19.00"/>
            </lane>
        </edge>
    </timestep>
    <timestep time="10.10">
        <edge id="1to2">
            <lane id="1to2_0">
                <vehicle id="CACC4" pos="6.51" speed="2.27"/>
                <vehicle id="CACC3" pos="21.36" speed="7.96"/>
                <vehicle id="CACC2" pos="52.44" speed="13.66"/>
                <vehicle id="CACC1" pos="125.40" speed="18.50"/>
            </lane>
        </edge>
    </timestep>
    <timestep time="10.20">
        <edge id="1to2">
            <lane id="1to2_0">
                <vehicle id="CACC4" pos="6.75" speed="2.47"/>
                <vehicle id="CACC3" pos="22.18" speed="8.16"/>
                <vehicle id="CACC2" pos="53.82" speed="13.86"/>
                <vehicle id="CACC1" pos="127.20" speed="18.00"/>
            </lane>
        </edge>
    </timestep>
    <timestep time="10.30">
        <edge id="1to2">
            <lane id="1to2_0">
                <vehicle id="CACC4" pos="7.02" speed="2.67"/>
                <vehicle id="CACC3" pos="23.02" speed="8.36"/>
                <vehicle id="CACC2" pos="55.23" speed="14.06"/>
                <vehicle id="CACC1" pos="128.95" speed="17.50"/>
            </lane>
        </edge>
    </timestep>
    <timestep time="10.40">
        <edge id="1to2">
            <lane id="1to2_0">
                <vehicle id="CACC4" pos="7.31" speed="2.87"/>
                <vehicle id="CACC3" pos="23.87" speed="8.56"/>
                <vehicle id="CACC2" pos="56.65" speed="14.26"/>
                <vehicle id="CACC1" pos="130.65" speed="17.00"/>
            </lane>
        </edge>
    </timestep>
    <timestep time="10.50">
        <edge id="1to2">
            <lane id="1to2_0">
                <vehicle id="CACC4" pos="7.62" speed="3.07"/>
                <vehicle id="CACC3" pos="24.75" speed="8.76"/>
                <vehicle id="CACC2" pos="58.10" speed="14.46"/>
                <vehicle id="CACC1" pos="132.30" speed="16.50"/>
            </lane>
        </edge>
    </timestep>
    <timestep time="10.60">
        <edge id="1to2">
            <lane id="1to2_0">
                <vehicle id="CACC4" pos="7.94" speed="3.27"/>
                <vehicle id="CACC3" pos="25.64" speed="8.96"/>
                <vehicle id="CACC2" pos="59.57" speed="14.66"/>
                <vehicle id="CACC1" pos="133.90" speed="16.00"/>
            </lane>
        </edge>
    </timestep>
    <timestep time="10.70">
        <edge id="1to2">
            <lane id="1to2_0">
                <vehicle id="CACC4" pos="8.29" speed="3.47"/>
                <vehicle id="CACC3" pos="26.56" speed="9.16"/>
                <vehicle id="CACC2" pos="61.05" speed="14.86"/>
                <vehicle id="CACC1" pos="135.45" speed="15.50"/>
            </lane>
        </edge>