<?xml version="1.0" encoding="UTF-8"?>

<!-- generated on Tue 11 Feb 2014 08:23:07 PM PST by SUMO gui Version dev-SVN-r15307
<?xml version="1.0" encoding="UTF-8"?>

<configuration xmlns:xsi="http://www.w3.org/2001/XMLSchema-instance" xsi:noNamespaceSchemaLocation="http://sumo-sim.org/xsd/sumo-gui.exeConfiguration.xsd">

    <input>
        <net-file value="hello.net.xml"/>
        <route-files value="hello.rou.xml"/>
    </input>

    <output>
        <netstate-dump value="/home/mani/Desktop/VENTOS/sumo/CACC_Platoon/dump.txt"/>
        <save-state.prefix value="state"/>
    </output>

    <time>
        <begin value="0"/>
        <end value="-1"/>
        <step-length value="0.1"/>
    </time>

    <processing>
        <time-to-teleport value="0"/>
    </processing>

    <report>
        <verbose value="true"/>
    </report>

    <traci_server>
        <remote-port value="49356"/>
    </traci_server>

    <random_number>
        <random value="false"/>
        <seed value="0"/>
    </random_number>

</configuration>
-->

<netstate xmlns:xsi="http://www.w3.org/2001/XMLSchema-instance" xsi:noNamespaceSchemaLocation="http://sumo-sim.org/xsd/netstate_file.xsd">
    <timestep time="0.00"/>
    <timestep time="0.10"/>
    <timestep time="0.20"/>
    <timestep time="0.30"/>
    <timestep time="0.40"/>
    <timestep time="0.50"/>
    <timestep time="0.60"/>
    <timestep time="0.70"/>
    <timestep time="0.80"/>
    <timestep time="0.90"/>
    <timestep time="1.00">
        <edge id="1to2">
            <lane id="1to2_0">
                <vehicle id="CACC1" pos="0.00" speed="0.00"/>
            </lane>
        </edge>
    </timestep>
    <timestep time="1.10">
        <edge id="1to2">
            <lane id="1to2_0">
                <vehicle id="CACC1" pos="0.03" speed="0.30"/>
            </lane>
        </edge>
    </timestep>
    <timestep time="1.20">
        <edge id="1to2">
            <lane id="1to2_0">
                <vehicle id="CACC1" pos="0.09" speed="0.60"/>
            </lane>
        </edge>
    </timestep>
    <timestep time="1.30">
        <edge id="1to2">
            <lane id="1to2_0">
                <vehicle id="CACC1" pos="0.18" speed="0.90"/>
            </lane>
        </edge>
    </timestep>
    <timestep time="1.40">
        <edge id="1to2">
            <lane id="1to2_0">
                <vehicle id="CACC1" pos="0.30" speed="1.20"/>
            </lane>
        </edge>
    </timestep>
    <timestep time="1.50">
        <edge id="1to2">
            <lane id="1to2_0">
                <vehicle id="CACC1" pos="0.45" speed="1.50"/>
            </lane>
        </edge>
    </timestep>
    <timestep time="1.60">
        <edge id="1to2">
            <lane id="1to2_0">
                <vehicle id="CACC1" pos="0.63" speed="1.80"/>
            </lane>
        </edge>
    </timestep>
    <timestep time="1.70">
        <edge id="1to2">
            <lane id="1to2_0">
                <vehicle id="CACC1" pos="0.84" speed="2.10"/>
            </lane>
        </edge>
    </timestep>
    <timestep time="1.80">
        <edge id="1to2">
            <lane id="1to2_0">
                <vehicle id="CACC1" pos="1.08" speed="2.40"/>
            </lane>
        </edge>
    </timestep>
    <timestep time="1.90">
        <edge id="1to2">
            <lane id="1to2_0">
                <vehicle id="CACC1" pos="1.35" speed="2.70"/>
            </lane>
        </edge>
    </timestep>
    <timestep time="2.00">
        <edge id="1to2">
            <lane id="1to2_0">
                <vehicle id="CACC1" pos="1.65" speed="3.00"/>
            </lane>
        </edge>
    </timestep>
    <timestep time="2.10">
        <edge id="1to2">
            <lane id="1to2_0">
                <vehicle id="CACC1" pos="1.98" speed="3.30"/>
            </lane>
        </edge>
    </timestep>
    <timestep time="2.20">
        <edge id="1to2">
            <lane id="1to2_0">
                <vehicle id="CACC1" pos="2.34" speed="3.60"/>
            </lane>
        </edge>
    </timestep>
    <timestep time="2.30">
        <edge id="1to2">
            <lane id="1to2_0">
                <vehicle id="CACC1" pos="2.73" speed="3.90"/>
            </lane>
        </edge>
    </timestep>
    <timestep time="2.40">
        <edge id="1to2">
            <lane id="1to2_0">
                <vehicle id="CACC1" pos="3.15" speed="4.20"/>
            </lane>
        </edge>
    </timestep>
    <timestep time="2.50">
        <edge id="1to2">
            <lane id="1to2_0">
                <vehicle id="CACC1" pos="3.60" speed="4.50"/>
            </lane>
        </edge>
    </timestep>
    <timestep time="2.60">
        <edge id="1to2">
            <lane id="1to2_0">
                <vehicle id="CACC1" pos="4.08" speed="4.80"/>
            </lane>
        </edge>
    </timestep>
    <timestep time="2.70">
        <edge id="1to2">
            <lane id="1to2_0">
                <vehicle id="CACC1" pos="4.59" speed="5.10"/>
            </lane>
        </edge>
    </timestep>
    <timestep time="2.80">
        <edge id="1to2">
            <lane id="1to2_0">
                <vehicle id="CACC1" pos="5.13" speed="5.40"/>
            </lane>
        </edge>
    </timestep>
    <timestep time="2.90">
        <edge id="1to2">
            <lane id="1to2_0">
                <vehicle id="CACC1" pos="5.70" speed="5.70"/>
            </lane>
        </edge>
    </timestep>
    <timestep time="3.00">
        <edge id="1to2">
            <lane id="1to2_0">
                <vehicle id="CACC1" pos="6.30" speed="6.00"/>
            </lane>
        </edge>
    </timestep>
    <timestep time="3.10">
        <edge id="1to2">
            <lane id="1to2_0">
                <vehicle id="CACC1" pos="6.93" speed="6.30"/>
            </lane>
        </edge>
    </timestep>
    <timestep time="3.20">
        <edge id="1to2">
            <lane id="1to2_0">
                <vehicle id="CACC2" pos="0.00" speed="0.00"/>
                <vehicle id="CACC1" pos="7.59" speed="6.60"/>
            </lane>
        </edge>
    </timestep>
    <timestep time="3.30">
        <edge id="1to2">
            <lane id="1to2_0">
                <vehicle id="CACC2" pos="0.00" speed="0.00"/>
                <vehicle id="CACC1" pos="8.28" speed="6.90"/>
            </lane>
        </edge>
    </timestep>
    <timestep time="3.40">
        <edge id="1to2">
            <lane id="1to2_0">
                <vehicle id="CACC2" pos="0.01" speed="0.07"/>
                <vehicle id="CACC1" pos="9.00" speed="7.20"/>
            </lane>
        </edge>
    </timestep>
    <timestep time="3.50">
        <edge id="1to2">
            <lane id="1to2_0">
                <vehicle id="CACC2" pos="0.03" speed="0.25"/>
                <vehicle id="CACC1" pos="9.75" speed="7.50"/>
            </lane>
        </edge>
    </timestep>
    <timestep time="3.60">
        <edge id="1to2">
            <lane id="1to2_0">
                <vehicle id="CACC2" pos="0.08" speed="0.45"/>
                <vehicle id="CACC1" pos="10.53" speed="7.80"/>
            </lane>
        </edge>
    </timestep>
    <timestep time="3.70">
        <edge id="1to2">
            <lane id="1to2_0">
                <vehicle id="CACC2" pos="0.14" speed="0.65"/>
                <vehicle id="CACC1" pos="11.34" speed="8.10"/>
            </lane>
        </edge>
    </timestep>
    <timestep time="3.80">
        <edge id="1to2">
            <lane id="1to2_0">
                <vehicle id="CACC2" pos="0.23" speed="0.85"/>
                <vehicle id="CACC1" pos="12.18" speed="8.40"/>
            </lane>
        </edge>
    </timestep>
    <timestep time="3.90">
        <edge id="1to2">
            <lane id="1to2_0">
                <vehicle id="CACC2" pos="0.33" speed="1.05"/>
                <vehicle id="CACC1" pos="13.05" speed="8.70"/>
            </lane>
        </edge>
    </timestep>
    <timestep time="4.00">
        <edge id="1to2">
            <lane id="1to2_0">
                <vehicle id="CACC2" pos="0.46" speed="1.25"/>
                <vehicle id="CACC1" pos="13.95" speed="9.00"/>
            </lane>
        </edge>
    </timestep>
    <timestep time="4.10">
        <edge id="1to2">
            <lane id="1to2_0">
                <vehicle id="CACC2" pos="0.60" speed="1.45"/>
                <vehicle id="CACC1" pos="14.88" speed="9.30"/>
            </lane>
        </edge>
    </timestep>
    <timestep time="4.20">
        <edge id="1to2">
            <lane id="1to2_0">
                <vehicle id="CACC2" pos="0.77" speed="1.65"/>
                <vehicle id="CACC1" pos="15.84" speed="9.60"/>
            </lane>
        </edge>
    </timestep>
    <timestep time="4.30">
        <edge id="1to2">
            <lane id="1to2_0">
                <vehicle id="CACC2" pos="0.95" speed="1.85"/>
                <vehicle id="CACC1" pos="16.83" speed="9.90"/>
            </lane>
        </edge>
    </timestep>
    <timestep time="4.40">
        <edge id="1to2">
            <lane id="1to2_0">
                <vehicle id="CACC2" pos="1.16" speed="2.05"/>
                <vehicle id="CACC1" pos="17.85" speed="10.20"/>
            </lane>
        </edge>
    </timestep>
    <timestep time="4.50">
        <edge id="1to2">
            <lane id="1to2_0">
                <vehicle id="CACC2" pos="1.38" speed="2.25"/>
                <vehicle id="CACC1" pos="18.90" speed="10.50"/>
            </lane>
        </edge>
    </timestep>
    <timestep time="4.60">
        <edge id="1to2">
            <lane id="1to2_0">
                <vehicle id="CACC2" pos="1.63" speed="2.45"/>
                <vehicle id="CACC1" pos="19.98" speed="10.80"/>
            </lane>
        </edge>
    </timestep>
    <timestep time="4.70">
        <edge id="1to2">
            <lane id="1to2_0">
                <vehicle id="CACC2" pos="1.89" speed="2.65"/>
                <vehicle id="CACC1" pos="21.09" speed="11.10"/>
            </lane>
        </edge>
    </timestep>
    <timestep time="4.80">
        <edge id="1to2">
            <lane id="1to2_0">
                <vehicle id="CACC2" pos="2.18" speed="2.85"/>
                <vehicle id="CACC1" pos="22.23" speed="11.40"/>
            </lane>
        </edge>
    </timestep>
    <timestep time="4.90">
        <edge id="1to2">
            <lane id="1to2_0">
                <vehicle id="CACC2" pos="2.48" speed="3.05"/>
                <vehicle id="CACC1" pos="23.40" speed="11.70"/>
            </lane>
        </edge>
    </timestep>
    <timestep time="5.00">
        <edge id="1to2">
            <lane id="1to2_0">
                <vehicle id="CACC2" pos="2.81" speed="3.25"/>
                <vehicle id="CACC1" pos="24.60" speed="12.00"/>
            </lane>
        </edge>
    </timestep>
    <timestep time="5.10">
        <edge id="1to2">
            <lane id="1to2_0">
                <vehicle id="CACC2" pos="3.15" speed="3.45"/>
                <vehicle id="CACC1" pos="25.83" speed="12.30"/>
            </lane>
        </edge>
    </timestep>
    <timestep time="5.20">
        <edge id="1to2">
            <lane id="1to2_0">
                <vehicle id="CACC2" pos="3.52" speed="3.65"/>
                <vehicle id="CACC1" pos="27.09" speed="12.60"/>
            </lane>
        </edge>
    </timestep>
    <timestep time="5.30">
        <edge id="1to2">
            <lane id="1to2_0">
                <vehicle id="CACC2" pos="3.90" speed="3.85"/>
                <vehicle id="CACC1" pos="28.38" speed="12.90"/>
            </lane>
        </edge>
    </timestep>
    <timestep time="5.40">
        <edge id="1to2">
            <lane id="1to2_0">
                <vehicle id="CACC2" pos="4.31" speed="4.05"/>
                <vehicle id="CACC1" pos="29.70" speed="13.20"/>
            </lane>
        </edge>
    </timestep>
    <timestep time="5.50">
        <edge id="1to2">
            <lane id="1to2_0">
                <vehicle id="CACC2" pos="4.73" speed="4.25"/>
                <vehicle id="CACC1" pos="31.05" speed="13.50"/>
            </lane>
        </edge>
    </timestep>
    <timestep time="5.60">
        <edge id="1to2">
            <lane id="1to2_0">
                <vehicle id="CACC2" pos="5.18" speed="4.45"/>
                <vehicle id="CACC1" pos="32.43" speed="13.80"/>
            </lane>
        </edge>
    </timestep>
    <timestep time="5.70">
        <edge id="1to2">
            <lane id="1to2_0">
                <vehicle id="CACC2" pos="5.64" speed="4.65"/>
                <vehicle id="CACC1" pos="33.84" speed="14.10"/>
            </lane>
        </edge>
    </timestep>
    <timestep time="5.80">
        <edge id="1to2">
            <lane id="1to2_0">
                <vehicle id="CACC2" pos="6.13" speed="4.85"/>
                <vehicle id="CACC1" pos="35.28" speed="14.40"/>
            </lane>
        </edge>
    </timestep>
    <timestep time="5.90">
        <edge id="1to2">
            <lane id="1to2_0">
                <vehicle id="CACC2" pos="6.63" speed="5.05"/>
                <vehicle id="CACC1" pos="36.75" speed="14.70"/>
            </lane>
        </edge>
    </timestep>
    <timestep time="6.00">
        <edge id="1to2">
            <lane id="1to2_0">
                <vehicle id="CACC3" pos="0.00" speed="0.00"/>
                <vehicle id="CACC2" pos="7.16" speed="5.25"/>
                <vehicle id="CACC1" pos="38.25" speed="15.00"/>
            </lane>
        </edge>
    </timestep>
    <timestep time="6.10">
        <edge id="1to2">
            <lane id="1to2_0">
                <vehicle id="CACC3" pos="0.00" speed="0.00"/>
                <vehicle id="CACC2" pos="7.70" speed="5.45"/>
                <vehicle id="CACC1" pos="39.78" speed="15.30"/>
            </lane>
        </edge>
    </timestep>
    <timestep time="6.20">
        <edge id="1to2">
            <lane id="1to2_0">
                <vehicle id="CACC3" pos="0.00" speed="0.00"/>
                <vehicle id="CACC2" pos="8.27" speed="5.65"/>
                <vehicle id="CACC1" pos="41.34" speed="15.60"/>
            </lane>
        </edge>
    </timestep>
    <timestep time="6.30">
        <edge id="1to2">
            <lane id="1to2_0">
                <vehicle id="CACC3" pos="0.00" speed="0.04"/>
                <vehicle id="CACC2" pos="8.85" speed="5.85"/>
                <vehicle id="CACC1" pos="42.93" speed="15.90"/>
            </lane>
        </edge>
    </timestep>
    <timestep time="6.40">
        <edge id="1to2">
            <lane id="1to2_0">
                <vehicle id="CACC3" pos="0.02" speed="0.17"/>
                <vehicle id="CACC2" pos="9.46" speed="6.05"/>
                <vehicle id="CACC1" pos="44.55" speed="16.20"/>
            </lane>
        </edge>
    </timestep>
    <timestep time="6.50">
        <edge id="1to2">
            <lane id="1to2_0">
                <vehicle id="CACC3" pos="0.06" speed="0.37"/>
                <vehicle id="CACC2" pos="10.08" speed="6.25"/>
                <vehicle id="CACC1" pos="46.20" speed="16.50"/>
            </lane>
        </edge>
    </timestep>
    <timestep time="6.60">
        <edge id="1to2">
            <lane id="1to2_0">
                <vehicle id="CACC3" pos="0.11" speed="0.57"/>
                <vehicle id="CACC2" pos="10.73" speed="6.45"/>
                <vehicle id="CACC1" pos="47.88" speed="16.80"/>
            </lane>
        </edge>
    </timestep>
    <timestep time="6.70">
        <edge id="1to2">
            <lane id="1to2_0">
                <vehicle id="CACC3" pos="0.19" speed="0.77"/>
                <vehicle id="CACC2" pos="11.39" speed="6.65"/>
                <vehicle id="CACC1" pos="49.59" speed="17.10"/>
            </lane>
        </edge>
    </timestep>
    <timestep time="6.80">
        <edge id="1to2">
            <lane id="1to2_0">
                <vehicle id="CACC3" pos="0.29" speed="0.97"/>
                <vehicle id="CACC2" pos="12.08" speed="6.85"/>
                <vehicle id="CACC1" pos="51.33" speed="17.40"/>
            </lane>
        </edge>
    </timestep>
    <timestep time="6.90">
        <edge id="1to2">
            <lane id="1to2_0">
                <vehicle id="CACC3" pos="0.40" speed="1.17"/>
                <vehicle id="CACC2" pos="12.78" speed="7.05"/>
                <vehicle id="CACC1" pos="53.10" speed="17.70"/>
            </lane>
        </edge>
    </timestep>
    <timestep time="7.00">
        <edge id="1to2">
            <lane id="1to2_0">
                <vehicle id="CACC3" pos="0.54" speed="1.37"/>
                <vehicle id="CACC2" pos="13.51" speed="7.25"/>
                <vehicle id="CACC1" pos="54.90" speed="18.00"/>
            </lane>
        </edge>
    </timestep>
    <timestep time="7.10">
        <edge id="1to2">
            <lane id="1to2_0">
                <vehicle id="CACC3" pos="0.70" speed="1.57"/>
                <vehicle id="CACC2" pos="14.25" speed="7.45"/>
                <vehicle id="CACC1" pos="56.73" speed="18.30"/>
            </lane>
        </edge>
    </timestep>
    <timestep time="7.20">
        <edge id="1to2">
            <lane id="1to2_0">
                <vehicle id="CACC3" pos="0.87" speed="1.77"/>
                <vehicle id="CACC2" pos="15.02" speed="7.65"/>
                <vehicle id="CACC1" pos="58.59" speed="18.60"/>
            </lane>
        </edge>
    </timestep>
    <timestep time="7.30">
        <edge id="1to2">
            <lane id="1to2_0">
                <vehicle id="CACC3" pos="1.07" speed="1.97"/>
                <vehicle id="CACC2" pos="15.80" speed="7.85"/>
                <vehicle id="CACC1" pos="60.48" speed="18.90"/>
            </lane>
        </edge>
    </timestep>
    <timestep time="7.40">
        <edge id="1to2">
            <lane id="1to2_0">
                <vehicle id="CACC3" pos="1.29" speed="2.17"/>
                <vehicle id="CACC2" pos="16.61" speed="8.05"/>
                <vehicle id="CACC1" pos="62.40" speed="19.20"/>
            </lane>
        </edge>
    </timestep>
    <timestep time="7.50">
        <edge id="1to2">
            <lane id="1to2_0">
                <vehicle id="CACC3" pos="1.52" speed="2.37"/>
                <vehicle id="CACC2" pos="17.43" speed="8.25"/>
                <vehicle id="CACC1" pos="64.35" speed="19.50"/>
            </lane>
        </edge>
    </timestep>
    <timestep time="7.60">
        <edge id="1to2">
            <lane id="1to2_0">
                <vehicle id="CACC3" pos="1.78" speed="2.57"/>
                <vehicle id="CACC2" pos="18.28" speed="8.45"/>
                <vehicle id="CACC1" pos="66.33" speed="19.80"/>
            </lane>
        </edge>
    </timestep>
    <timestep time="7.70">
        <edge id="1to2">
            <lane id="1to2_0">
                <vehicle id="CACC3" pos="2.06" speed="2.77"/>
                <vehicle id="CACC2" pos="19.14" speed="8.65"/>
                <vehicle id="CACC1" pos="68.34" speed="20.10"/>
            </lane>
        </edge>
    </timestep>
    <timestep time="7.80">
        <edge id="1to2">
            <lane id="1to2_0">
                <vehicle id="CACC3" pos="2.35" speed="2.97"/>
                <vehicle id="CACC2" pos="20.03" speed="8.85"/>
                <vehicle id="CACC1" pos="70.38" speed="20.40"/>
            </lane>
        </edge>
    </timestep>
    <timestep time="7.90">
        <edge id="1to2">
            <lane id="1to2_0">
                <vehicle id="CACC3" pos="2.67" speed="3.17"/>
                <vehicle id="CACC2" pos="20.93" speed="9.05"/>
                <vehicle id="CACC1" pos="72.45" speed="20.70"/>
            </lane>
        </edge>
    </timestep>
    <timestep time="8.00">
        <edge id="1to2">
            <lane id="1to2_0">
                <vehicle id="CACC3" pos="3.01" speed="3.37"/>
                <vehicle id="CACC2" pos="21.86" speed="9.25"/>
                <vehicle id="CACC1" pos="74.55" speed="21.00"/>
            </lane>
        </edge>
    </timestep>
    <timestep time="8.10">
        <edge id="1to2">
            <lane id="1to2_0">
                <vehicle id="CACC3" pos="3.36" speed="3.57"/>
                <vehicle id="CACC2" pos="22.80" speed="9.45"/>
                <vehicle id="CACC1" pos="76.68" speed="21.30"/>
            </lane>
        </edge>
    </timestep>
    <timestep time="8.20">
        <edge id="1to2">
            <lane id="1to2_0">
                <vehicle id="CACC3" pos="3.74" speed="3.77"/>
                <vehicle id="CACC2" pos="23.77" speed="9.65"/>
                <vehicle id="CACC1" pos="78.84" speed="21.60"/>
            </lane>
        </edge>
    </timestep>
    <timestep time="8.30">
        <edge id="1to2">
            <lane id="1to2_0">
                <vehicle id="CACC3" pos="4.14" speed="3.97"/>
                <vehicle id="CACC2" pos="24.75" speed="9.85"/>
                <vehicle id="CACC1" pos="81.03" speed="21.90"/>
            </lane>
        </edge>
    </timestep>
    <timestep time="8.40">
        <edge id="1to2">
            <lane id="1to2_0">
                <vehicle id="CACC3" pos="4.55" speed="4.17"/>
                <vehicle id="CACC2" pos="25.76" speed="10.05"/>
                <vehicle id="CACC1" pos="83.25" speed="22.20"/>
            </lane>
        </edge>
    </timestep>
    <timestep time="8.50">
        <edge id="1to2">
            <lane id="1to2_0">
                <vehicle id="CACC3" pos="4.99" speed="4.37"/>
                <vehicle id="CACC2" pos="26.78" speed="10.25"/>
                <vehicle id="CACC1" pos="85.50" speed="22.50"/>
            </lane>
        </edge>
    </timestep>
    <timestep time="8.60">
        <edge id="1to2">
            <lane id="1to2_0">
                <vehicle id="CACC3" pos="5.45" speed="4.57"/>
                <vehicle id="CACC2" pos="27.83" speed="10.45"/>
                <vehicle id="CACC1" pos="87.78" speed="22.80"/>
            </lane>
        </edge>
    </timestep>
    <timestep time="8.70">
        <edge id="1to2">
            <lane id="1to2_0">
                <vehicle id="CACC3" pos="5.92" speed="4.77"/>
                <vehicle id="CACC2" pos="28.90" speed="10.65"/>
                <vehicle id="CACC1" pos="90.09" speed="23.10"/>
            </lane>
        </edge>
    </timestep>
    <timestep time="8.80">
        <edge id="1to2">
            <lane id="1to2_0">
                <vehicle id="CACC3" pos="6.42" speed="4.97"/>
                <vehicle id="CACC2" pos="29.98" speed="10.85"/>
                <vehicle id="CACC1" pos="92.35" speed="22.60"/>
            </lane>
        </edge>
    </timestep>
    <timestep time="8.90">
        <edge id="1to2">
            <lane id="1to2_0">
                <vehicle id="CACC3" pos="6.94" speed="5.17"/>
                <vehicle id="CACC2" pos="31.09" speed="11.05"/>
                <vehicle id="CACC1" pos="94.56" speed="22.10"/>
            </lane>
        </edge>
    </timestep>
    <timestep time="9.00">
        <edge id="1to2">
            <lane id="1to2_0">
                <vehicle id="CACC4" pos="0.00" speed="0.00"/>
                <vehicle id="CACC3" pos="7.47" speed="5.37"/>
                <vehicle id="CACC2" pos="32.21" speed="11.25"/>
                <vehicle id="CACC1" pos="96.72" speed="21.60"/>
            </lane>
        </edge>
    </timestep>
    <timestep time="9.10">
        <edge id="1to2">
            <lane id="1to2_0">
                <vehicle id="CACC4" pos="0.00" speed="0.00"/>
                <vehicle id="CACC3" pos="8.03" speed="5.57"/>
                <vehicle id="CACC2" pos="33.36" speed="11.45"/>
                <vehicle id="CACC1" pos="98.83" speed="21.10"/>
            </lane>
        </edge>
    </timestep>
    <timestep time="9.20">
        <edge id="1to2">
            <lane id="1to2_0">
                <vehicle id="CACC4" pos="0.00" speed="0.01"/>
                <vehicle id="CACC3" pos="8.61" speed="5.77"/>
                <vehicle id="CACC2" pos="34.52" speed="11.65"/>
                <vehicle id="CACC1" pos="100.89" speed="20.60"/>
            </lane>
        </edge>
    </timestep>
    <timestep time="9.30">
        <edge id="1to2">
            <lane id="1to2_0">
                <vehicle id="CACC4" pos="0.01" speed="0.10"/>
                <vehicle id="CACC3" pos="9.20" speed="5.97"/>
                <vehicle id="CACC2" pos="35.71" speed="11.85"/>
                <vehicle id="CACC1" pos="102.90" speed="20.10"/>
            </lane>
        </edge>
    </timestep>
    <timestep time="9.40">
        <edge id="1to2">
            <lane id="1to2_0">
                <vehicle id="CACC4" pos="0.04" speed="0.29"/>
                <vehicle id="CACC3" pos="9.82" speed="6.17"/>
                <vehicle id="CACC2" pos="36.91" speed="12.05"/>
                <vehicle id="CACC1" pos="104.86" speed="19.60"/>
            </lane>
        </edge>
    </timestep>
    <timestep time="9.50">
        <edge id="1to2">
            <lane id="1to2_0">
                <vehicle id="CACC4" pos="0.09" speed="0.49"/>
                <vehicle id="CACC3" pos="10.46" speed="6.37"/>
                <vehicle id="CACC2" pos="38.14" speed="12.25"/>
                <vehicle id="CACC1" pos="106.77" speed="19.10"/>
            </lane>
        </edge>
    </timestep>
    <timestep time="9.60">
        <edge id="1to2">
            <lane id="1to2_0">
                <vehicle id="CACC4" pos="0.16" speed="0.69"/>
                <vehicle id="CACC3" pos="11.11" speed="6.57"/>
                <vehicle id="CACC2" pos="39.38" speed="12.45"/>
                <vehicle id="CACC1" pos="108.63" speed="18.60"/>
            </lane>
        </edge>
    </timestep>
    <timestep time="9.70">
        <edge id="1to2">
            <lane id="1to2_0">
                <vehicle id="CACC4" pos="0.25" speed="0.89"/>
                <vehicle id="CACC3" pos="11.79" speed="6.77"/>
                <vehicle id="CACC2" pos="40.65" speed="12.65"/>
                <vehicle id="CACC1" pos="110.44" speed="18.10"/>
            </lane>
        </edge>
    </timestep>
    <timestep time="9.80">
        <edge id="1to2">
            <lane id="1to2_0">
                <vehicle id="CACC4" pos="0.36" speed="1.09"/>
                <vehicle id="CACC3" pos="12.49" speed="6.97"/>
                <vehicle id="CACC2" pos="41.93" speed="12.85"/>
                <vehicle id="CACC1" pos="112.20" speed="17.60"/>
            </lane>
        </edge>
    </timestep>
    <timestep time="9.90">
        <edge id="1to2">
            <lane id="1to2_0">
                <vehicle id="CACC4" pos="0.48" speed="1.29"/>
                <vehicle id="CACC3" pos="13.20" speed="7.17"/>
                <vehicle id="CACC2" pos="43.24" speed="13.05"/>
                <vehicle id="CACC1" pos="113.91" speed="17.10"/>
            </lane>
        </edge>
    </timestep>
    <timestep time="10.00">
        <edge id="1to2">
            <lane id="1to2_0">
                <vehicle id="CACC4" pos="0.63" speed="1.49"/>
                <vehicle id="CACC3" pos="13.94" speed="7.37"/>
                <vehicle id="CACC2" pos="44.56" speed="13.25"/>
                <vehicle id="CACC1" pos="115.57" speed="16.60"/>
            </lane>
        </edge>
    </timestep>
    <timestep time="10.10">
        <edge id="1to2">
            <lane id="1to2_0">
                <vehicle id="CACC4" pos="0.80" speed="1.69"/>
                <vehicle id="CACC3" pos="14.70" speed="7.57"/>
                <vehicle id="CACC2" pos="45.91" speed="13.45"/>
                <vehicle id="CACC1" pos="117.18" speed="16.10"/>
            </lane>
        </edge>
    </timestep>
    <timestep time="10.20">
        <edge id="1to2">
            <lane id="1to2_0">
                <vehicle id="CACC4" pos="0.99" speed="1.89"/>
                <vehicle id="CACC3" pos="15.47" speed="7.77"/>
                <vehicle id="CACC2" pos="47.27" speed="13.65"/>
                <vehicle id="CACC1" pos="118.74" speed="15.60"/>
            </lane>
        </edge>
    </timestep>
    <timestep time="10.30">
        <edge id="1to2">
            <lane id="1to2_0">
                <vehicle id="CACC4" pos="1.20" speed="2.09"/>
                <vehicle id="CACC3" pos="16.27" speed="7.97"/>
                <vehicle id="CACC2" pos="48.66" speed="13.85"/>
                <vehicle id="CACC1" pos="120.25" speed="15.10"/>
            </lane>
        </edge>
    </timestep>
    <timestep time="10.40">
        <edge id="1to2">
            <lane id="1to2_0">
                <vehicle id="CACC4" pos="1.43" speed="2.29"/>
                <vehicle id="CACC3" pos="17.09" speed="8.17"/>
                <vehicle id="CACC2" pos="50.06" speed="14.05"/>
                <vehicle id="CACC1" pos="121.71" speed="14.60"/>
            </lane>
        </edge>
    </timestep>
    <timestep time="10.50">
        <edge id="1to2">
            <lane id="1to2_0">
                <vehicle id="CACC4" pos="1.68" speed="2.49"/>
                <vehicle id="CACC3" pos="17.92" speed="8.37"/>
                <vehicle id="CACC2" pos="51.49" speed="14.25"/>
                <vehicle id="CACC1" pos="123.12" speed="14.10"/>
            </lane>
        </edge>
    </timestep>
    <timestep time="10.60">
        <edge id="1to2">
            <lane id="1to2_0">
                <vehicle id="CACC4" pos="1.95" speed="2.69"/>
                <vehicle id="CACC3" pos="18.78" speed="8.57"/>
                <vehicle id="CACC2" pos="52.93" speed="14.45"/>
                <vehicle id="CACC1" pos="124.48" speed="13.60"/>
            </lane>
        </edge>
    </timestep>
    <timestep time="10.70">
        <edge id="1to2">
            <lane id="1to2_0">
                <vehicle id="CACC4" pos="2.24" speed="2.89"/>
                <vehicle id="CACC3" pos="19.66" speed="8.77"/>
                <vehicle id="CACC2" pos="54.40" speed="14.65"/>
                <vehicle id="CACC1" pos="125.79" speed="13.10"/>
            </lane>
        </edge>
    </timestep>
    <timestep time="10.80">
        <edge id="1to2">
            <lane id="1to2_0">
                <vehicle id="CACC4" pos="2.54" speed="3.09"/>